 vasp.5.4.4.18Apr17-6-g9f103f2a35 (build Aug 18 2022 11:57:37) complex          
  
 executed on             LinuxIFC date 2023.09.25  02:19:58
 running on   16 total cores
 distrk:  each k-point on   16 cores,    1 groups
 distr:  one band on NCORES_PER_BAND=   4 cores,    4 groups


--------------------------------------------------------------------------------------------------------


 INCAR:
 POTCAR:   PAW_PBE O 08Apr2002                    
 POTCAR:   PAW_PBE Ti_sv 07Sep2000                
 POTCAR:   PAW_PBE O 08Apr2002                    
   VRHFIN =O: s2p4                                                              
   LEXCH  = PE                                                                  
   EATOM  =   432.3788 eV,   31.7789 Ry                                         
                                                                                
   TITEL  = PAW_PBE O 08Apr2002                                                 
   LULTRA =        F    use ultrasoft PP ?                                      
   IUNSCR =        0    unscreen: 0-lin 1-nonlin 2-no                           
   RPACOR =     .000    partial core radius                                     
   POMASS =   16.000; ZVAL   =    6.000    mass and valenz                      
   RCORE  =    1.520    outmost cutoff radius                                   
   RWIGS  =    1.550; RWIGS  =     .820    wigner-seitz radius (au A)           
   ENMAX  =  400.000; ENMIN  =  300.000 eV                                      
   ICORE  =        2    local potential                                         
   LCOR   =        T    correct aug charges                                     
   LPAW   =        T    paw PP                                                  
   EAUG   =  605.392                                                            
   DEXC   =     .000                                                            
   RMAX   =    2.264    core radius for proj-oper                               
   RAUG   =    1.300    factor for augmentation sphere                          
   RDEP   =    1.550    radius for radial grids                                 
   QCUT   =   -5.520; QGAM   =   11.041    optimization parameters              
                                                                                
   Description                                                                  
     l     E      TYP  RCUT    TYP  RCUT                                        
     0   .000     23  1.200                                                     
     0  -.700     23  1.200                                                     
     1   .000     23  1.520                                                     
     1   .600     23  1.520                                                     
     2   .000      7  1.500                                                     
  local pseudopotential read in
  atomic valenz-charges read in
  non local Contribution for L=           0  read in
    real space projection operators read in
  non local Contribution for L=           0  read in
    real space projection operators read in
  non local Contribution for L=           1  read in
    real space projection operators read in
  non local Contribution for L=           1  read in
    real space projection operators read in
    PAW grid and wavefunctions read in
 
   number of l-projection  operators is LMAX  =           4
   number of lm-projection operators is LMMAX =           8
 
 POTCAR:   PAW_PBE Ti_sv 07Sep2000                
   VRHFIN =Ti: 3p4s3d                                                           
   LEXCH  = PE                                                                  
   EATOM  =  1587.5048 eV,  116.6783 Ry                                         
                                                                                
   TITEL  = PAW_PBE Ti_sv 07Sep2000                                             
   LULTRA =        F    use ultrasoft PP ?                                      
   IUNSCR =        1    unscreen: 0-lin 1-nonlin 2-no                           
   RPACOR =    2.000    partial core radius                                     
   POMASS =   47.880; ZVAL   =   12.000    mass and valenz                      
   RCORE  =    2.300    outmost cutoff radius                                   
   RWIGS  =    2.300; RWIGS  =    1.217    wigner-seitz radius (au A)           
   ENMAX  =  274.574; ENMIN  =  205.930 eV                                      
   RCLOC  =    1.701    cutoff for local pot                                    
   LCOR   =        T    correct aug charges                                     
   LPAW   =        T    paw PP                                                  
   EAUG   =  482.848                                                            
   DEXC   =     .000                                                            
   RMAX   =    2.783    core radius for proj-oper                               
   RAUG   =    1.300    factor for augmentation sphere                          
   RDEP   =    2.381    radius for radial grids                                 
   QCUT   =   -4.492; QGAM   =    8.985    optimization parameters              
                                                                                
   Description                                                                  
     l     E      TYP  RCUT    TYP  RCUT                                        
     0   .000     23  1.800                                                     
     0   .000     23  2.300                                                     
     0   .000     23  1.800                                                     
     0   .000     23  2.300                                                     
     1   .000     23  2.300                                                     
     1  -.100     23  2.300                                                     
     2   .000     23  2.300                                                     
     2   .000     23  2.300                                                     
     3   .000      7   .000                                                     
  local pseudopotential read in
  partial core-charges read in
  atomic valenz-charges read in
  non local Contribution for L=           0  read in
    real space projection operators read in
  non local Contribution for L=           0  read in
    real space projection operators read in
  non local Contribution for L=           1  read in
    real space projection operators read in
  non local Contribution for L=           1  read in
    real space projection operators read in
  non local Contribution for L=           2  read in
    real space projection operators read in
  non local Contribution for L=           2  read in
    real space projection operators read in
    PAW grid and wavefunctions read in
 
   number of l-projection  operators is LMAX  =           6
   number of lm-projection operators is LMMAX =          18
 

 ----------------------------------------------------------------------------- 
|                                                                             |
|  ADVICE TO THIS USER RUNNING 'VASP/VAMP'   (HEAR YOUR MASTER'S VOICE ...):  |
|                                                                             |
|      You have a (more or less) 'large supercell' and for larger cells       |
|      it might be more efficient to use real space projection operators      |
|      So try LREAL= Auto  in the INCAR   file.                               |
|      Mind: If you want to do a very accurate calculations keep the          |
|      reciprocal projection scheme          (i.e. LREAL=.FALSE.)             |
|                                                                             |
 ----------------------------------------------------------------------------- 

 PAW_PBE O 08Apr2002                    :
 energy of atom  1       EATOM= -432.3788
 kinetic energy error for atom=    0.0224 (will be added to EATOM!!)
 PAW_PBE Ti_sv 07Sep2000                :
 energy of atom  2       EATOM=-1587.5048
 kinetic energy error for atom=    0.0046 (will be added to EATOM!!)
 
 
 POSCAR: Ti-relaxed                              
  positions in direct lattice
  velocities in cartesian coordinates
 exchange correlation table for  LEXCH =        8
   RHO(1)=    0.500       N(1)  =     2000
   RHO(2)=  100.500       N(2)  =     4000
 


--------------------------------------------------------------------------------------------------------


 ion  position               nearest neighbor table
   1  0.583  0.417  0.625-  54 2.09  57 2.09  55 2.09  46 2.09  44 2.09  47 2.09
   2  0.166  0.083  0.250-  45 2.87   5 2.88   3 2.88  37 2.88  35 2.88  13 2.89
   3  1.000  0.000  0.000-  40 2.88  64 2.88  34 2.88   2 2.88  32 2.88   8 2.89
   4  0.416  0.082  0.250-  47 2.85  37 2.88  39 2.88   7 2.89   5 2.89  15 2.89
   5  0.249  1.000  0.000-  36 2.87   2 2.88  26 2.88  34 2.88  58 2.88   4 2.89
   6  0.666  0.083  0.250-  49 2.87   7 2.88   9 2.88  39 2.88  41 2.89  17 2.89
   7  0.500  1.000  0.000-  36 2.87   6 2.88  28 2.88  38 2.88  60 2.88   4 2.89
   8  0.917  0.083  0.251-  41 2.88  35 2.88  43 2.88   3 2.89  11 2.89   9 2.89
   9  0.751  0.000  0.000-  40 2.88  62 2.88  38 2.88   6 2.88  30 2.88   8 2.89
  10  0.166  0.334  0.250-  45 2.87  21 2.88  11 2.88  53 2.88  43 2.88  13 2.89
  11  1.000  0.249  0.000-  40 2.88  48 2.88  42 2.88  16 2.88  10 2.88   8 2.89
  12  0.415  0.333  0.251-  47 2.85  55 2.85  45 2.86  13 2.89  15 2.91  23 2.91
  13  0.249  0.250  1.000-  44 2.85  34 2.88  42 2.88  10 2.89   2 2.89  12 2.89
  14  0.667  0.333  0.251-  47 2.85  57 2.85  49 2.86  17 2.89  15 2.91  25 2.91
  15  0.499  0.249  0.999-  44 2.85  46 2.85  36 2.86   4 2.89  12 2.91  14 2.91
  16  0.917  0.334  0.250-  49 2.87  19 2.88  11 2.88  51 2.88  43 2.88  17 2.89
  17  0.751  0.250  1.000-  46 2.85  38 2.88  48 2.88  16 2.89   6 2.89  14 2.89
  18  0.167  0.584  0.250-  61 2.88  51 2.88  53 2.88  21 2.88  19 2.88  29 2.89
  19  0.000  0.500  0.000-  56 2.87  16 2.88  18 2.88  48 2.88  50 2.89  24 2.89
  20  0.416  0.584  0.250-  55 2.86  53 2.88  63 2.88  31 2.89  21 2.89  23 2.89
  21  0.249  0.500  0.000-  52 2.87  10 2.88  18 2.88  42 2.88  50 2.89  20 2.89
  22  0.667  0.585  0.251-  55 2.85  57 2.85  65 2.86  33 2.89  23 2.91  25 2.91
  23  0.499  0.501  0.999-  44 2.85  54 2.85  52 2.86  20 2.89  12 2.91  22 2.91
  24  0.918  0.584  0.250-  57 2.86  51 2.88  59 2.88  19 2.89  27 2.89  25 2.89
  25  0.751  0.501  0.999-  46 2.85  54 2.85  56 2.86  24 2.89  14 2.91  22 2.91
  26  0.167  0.833  0.250-  61 2.88  59 2.88  37 2.88   5 2.88  27 2.88  29 2.89
  27  0.000  0.751  0.000-  56 2.87  32 2.88  26 2.88  64 2.88  58 2.89  24 2.89
  28  0.416  0.833  0.250-  61 2.88  63 2.88  39 2.88   7 2.88  31 2.88  29 2.89
  29  0.250  0.750  0.999-  50 2.88  58 2.88  60 2.88  26 2.89  28 2.89  18 2.89
  30  0.666  0.834  0.250-  65 2.87  31 2.88  63 2.88   9 2.88  41 2.89  33 2.89
  31  0.500  0.751  0.000-  52 2.87  30 2.88  28 2.88  62 2.88  60 2.89  20 2.89
  32  0.917  0.834  0.250-  65 2.87  27 2.88  59 2.88   3 2.88  35 2.89  33 2.89
  33  0.751  0.751  1.000-  54 2.86  62 2.88  64 2.88  30 2.89  32 2.89  22 2.89
  34  0.166  0.084  0.751-  13 2.88   3 2.88   5 2.88  35 2.89  37 2.90  45 2.91
  35  0.000  1.000  0.500-   8 2.88   2 2.88  32 2.89  34 2.89  64 2.89  40 2.89  45 2.92  65 2.92

  36  0.416  0.082  0.753-  15 2.86   7 2.87   5 2.87  39 2.91  37 2.91  58 2.92  60 2.92
  37  0.250  1.000  0.499-   4 2.88  26 2.88   2 2.88  58 2.89  34 2.90  36 2.91
  38  0.667  0.084  0.751-  17 2.88   9 2.88   7 2.88  41 2.89  39 2.90  49 2.91
  39  0.500  1.000  0.499-   4 2.88  28 2.88   6 2.88  60 2.89  38 2.90  36 2.91
  40  0.917  0.083  0.750-  11 2.88   3 2.88   9 2.88  41 2.89  35 2.89  43 2.89
  41  0.750  1.000  0.500-   8 2.88   6 2.89  30 2.89  38 2.89  62 2.89  40 2.89  49 2.92  65 2.92

  42  0.166  0.333  0.751-  13 2.88  11 2.88  21 2.88  43 2.89  53 2.90  45 2.91
  43  0.000  0.250  0.500-   8 2.88  10 2.88  16 2.88  48 2.89  42 2.89  40 2.89  45 2.92  49 2.92

  44  0.416  0.333  0.754-   1 2.09  23 2.85  15 2.85  13 2.85
  45  0.248  0.249  0.497-  12 2.86  10 2.87   2 2.87  34 2.91  42 2.91  35 2.92  43 2.92
  46  0.667  0.333  0.754-   1 2.09  25 2.85  15 2.85  17 2.85
  47  0.500  0.249  0.496-   1 2.09  14 2.85  12 2.85   4 2.85
  48  0.917  0.333  0.751-  17 2.88  11 2.88  19 2.88  43 2.89  51 2.90  49 2.91
  49  0.751  0.249  0.497-  14 2.86  16 2.87   6 2.87  38 2.91  48 2.91  41 2.92  43 2.92
  50  0.167  0.583  0.750-  29 2.88  21 2.89  19 2.89  53 2.89  51 2.89  61 2.89  52 2.92  56 2.92

  51  0.000  0.500  0.499-  24 2.88  18 2.88  16 2.88  50 2.89  48 2.90  56 2.91
  52  0.416  0.584  0.753-  23 2.86  31 2.87  21 2.87  53 2.91  63 2.91  50 2.92  60 2.92
  53  0.250  0.500  0.499-  20 2.88  18 2.88  10 2.88  50 2.89  42 2.90  52 2.91
  54  0.667  0.584  0.754-   1 2.09  25 2.85  23 2.85  33 2.86
  55  0.500  0.500  0.496-   1 2.09  22 2.85  12 2.85  20 2.86
  56  0.919  0.584  0.753-  25 2.86  27 2.87  19 2.87  51 2.91  59 2.91  50 2.92  58 2.92
  57  0.751  0.500  0.496-   1 2.09  22 2.85  14 2.85  24 2.86
  58  0.167  0.833  0.750-  29 2.88   5 2.88  27 2.89  37 2.89  59 2.89  61 2.89  36 2.92  56 2.92

  59  0.000  0.750  0.499-  24 2.88  26 2.88  32 2.88  58 2.89  64 2.90  56 2.91
  60  0.417  0.833  0.750-  29 2.88   7 2.88  31 2.89  39 2.89  63 2.89  61 2.89  36 2.92  52 2.92

  61  0.250  0.750  0.500-  28 2.88  26 2.88  18 2.88  50 2.89  58 2.89  60 2.89
  62  0.667  0.834  0.751-  33 2.88   9 2.88  31 2.88  41 2.89  63 2.90  65 2.91
  63  0.500  0.750  0.499-  20 2.88  28 2.88  30 2.88  60 2.89  62 2.90  52 2.91
  64  0.917  0.834  0.751-  33 2.88   3 2.88  27 2.88  35 2.89  59 2.90  65 2.91
  65  0.751  0.752  0.497-  22 2.86  32 2.87  30 2.87  62 2.91  64 2.91  41 2.92  35 2.92
 
  LATTYP: Found a hexagonal cell.
 ALAT       =    11.7433448534
 C/A-ratio  =     0.7957015627
  
  Lattice vectors:
  
 A1 = (  11.7433469996,  -0.0000046230,  -0.0000036304)
 A2 = (  -5.8717127109,  10.1700117103,   0.0000048065)
 A3 = (  -0.0000027513,   0.0000025574,   9.3441978510)


Analysis of symmetry for initial positions (statically):
=====================================================================
 Subroutine PRICEL returns:
 Original cell was already a primitive cell.
 

 Routine SETGRP: Setting up the symmetry group for a 
 hexagonal supercell.


 Subroutine GETGRP returns: Found  1 space group operations
 (whereof  1 operations were pure point group operations)
 out of a pool of 24 trial point group operations.


The static configuration has the point symmetry C_1 .


Analysis of symmetry for dynamics (positions and initial velocities):
=====================================================================
 Subroutine PRICEL returns:
 Original cell was already a primitive cell.
 

 Routine SETGRP: Setting up the symmetry group for a 
 hexagonal supercell.


 Subroutine GETGRP returns: Found  1 space group operations
 (whereof  1 operations were pure point group operations)
 out of a pool of 24 trial point group operations.


The dynamic configuration has the point symmetry C_1 .


 Subroutine INISYM returns: Found  1 space group operations
 (whereof  1 operations are pure point group operations),
 and found     1 'primitive' translations

 
 
 KPOINTS: K-POINTS                                

Automatic generation of k-mesh.
Space group operators:
 irot       det(A)        alpha          n_x          n_y          n_z        tau_x        tau_y        tau_z
    1     1.000000     0.000000     1.000000     0.000000     0.000000     0.000000     0.000000     0.000000
 
 Subroutine IBZKPT returns following result:
 ===========================================
 
 Found     14 irreducible k-points:
 
 Following reciprocal coordinates:
            Coordinates               Weight
  0.000000  0.000000  0.000000      1.000000
  0.333333 -0.000000  0.000000      2.000000
  0.000000  0.333333  0.000000      2.000000
  0.333333  0.333333 -0.000000      2.000000
 -0.333333  0.333333 -0.000000      2.000000
  0.000000  0.000000  0.333333      2.000000
  0.333333 -0.000000  0.333333      2.000000
 -0.333333  0.000000  0.333333      2.000000
 -0.000000  0.333333  0.333333      2.000000
  0.333333  0.333333  0.333333      2.000000
 -0.333333  0.333333  0.333333      2.000000
 -0.000000 -0.333333  0.333333      2.000000
  0.333333 -0.333333  0.333333      2.000000
 -0.333333 -0.333333  0.333333      2.000000
 
 Following cartesian coordinates:
            Coordinates               Weight
  0.000000  0.000000  0.000000      1.000000
  0.028385  0.016388  0.000000      2.000000
  0.000000  0.032776 -0.000000      2.000000
  0.028385  0.049164 -0.000000      2.000000
 -0.028385  0.016388 -0.000000      2.000000
  0.000000 -0.000000  0.035673      2.000000
  0.028385  0.016388  0.035673      2.000000
 -0.028385 -0.016388  0.035673      2.000000
  0.000000  0.032776  0.035673      2.000000
  0.028385  0.049164  0.035673      2.000000
 -0.028385  0.016388  0.035673      2.000000
 -0.000000 -0.032776  0.035673      2.000000
  0.028385 -0.016388  0.035673      2.000000
 -0.028385 -0.049164  0.035673      2.000000
 


--------------------------------------------------------------------------------------------------------




 Dimension of arrays:
   k-points           NKPTS =     14   k-points in BZ     NKDIM =     14   number of bands    NBANDS=    464
   number of dos      NEDOS =    301   number of ions     NIONS =     65
   non local maximal  LDIM  =      6   non local SUM 2l+1 LMDIM =     18
   total plane-waves  NPLWV = 567000
   max r-space proj   IRMAX =      1   max aug-charges    IRDMAX=  19923
   dimension x,y,z NGX =    90 NGY =   90 NGZ =   70
   dimension x,y,z NGXF=   180 NGYF=  180 NGZF=  140
   support grid    NGXF=   180 NGYF=  180 NGZF=  140
   ions per type =               1  64
   NGX,Y,Z   is equivalent  to a cutoff of  12.74, 12.74, 12.45 a.u.
   NGXF,Y,Z  is equivalent  to a cutoff of  25.48, 25.48, 24.91 a.u.

 SYSTEM =  OPT                                     
 POSCAR =  Ti-relaxed                              

 Startparameter for this run:
   NWRITE =      2    write-flag & timer
   PREC   = accura    normal or accurate (medium, high low for compatibility)
   ISTART =      0    job   : 0-new  1-cont  2-samecut
   ICHARG =      2    charge: 1-file 2-atom 10-const
   ISPIN  =      1    spin polarized calculation?
   LNONCOLLINEAR =      F non collinear calculations
   LSORBIT =      F    spin-orbit coupling
   INIWAV =      1    electr: 0-lowe 1-rand  2-diag
   LASPH  =      F    aspherical Exc in radial PAW
   METAGGA=      F    non-selfconsistent MetaGGA calc.

 Electronic Relaxation 1
   ENCUT  =  500.0 eV  36.75 Ry    6.06 a.u.  21.41 21.41 17.04*2*pi/ulx,y,z
   ENINI  =  500.0     initial cutoff
   ENAUG  =  605.4 eV  augmentation charge cutoff
   NELM   =    100;   NELMIN=  2; NELMDL= -5     # of ELM steps 
   EDIFF  = 0.1E-05   stopping-criterion for ELM
   LREAL  =      F    real-space projection
   NLSPLINE    = F    spline interpolate recip. space projectors
   LCOMPAT=      F    compatible to vasp.4.4
   GGA_COMPAT  = T    GGA compatible to vasp.4.4-vasp.4.6
   LMAXPAW     = -100 max onsite density
   LMAXMIX     =    2 max onsite mixed and CHGCAR
   VOSKOWN=      0    Vosko Wilk Nusair interpolation
   ROPT   =    0.00000   0.00000
 Ionic relaxation
   EDIFFG = -.1E-01   stopping-criterion for IOM
   NSW    =    100    number of steps for IOM
   NBLOCK =      1;   KBLOCK =    100    inner block; outer block 
   IBRION =      2    ionic relax: 0-MD 1-quasi-New 2-CG
   NFREE  =      1    steps in history (QN), initial steepest desc. (CG)
   ISIF   =      3    stress and relaxation
   IWAVPR =     11    prediction:  0-non 1-charg 2-wave 3-comb
   ISYM   =      2    0-nonsym 1-usesym 2-fastsym
   LCORR  =      T    Harris-Foulkes like correction to forces

   POTIM  = 0.2000    time-step for ionic-motion
   TEIN   =    0.0    initial temperature
   TEBEG  =    0.0;   TEEND  =   0.0 temperature during run
   SMASS  =  -3.00    Nose mass-parameter (am)
   estimated Nose-frequenzy (Omega)   =  0.10E-29 period in steps =****** mass=  -0.315E-26a.u.
   SCALEE = 1.0000    scale energy and forces
   NPACO  =    256;   APACO  = 16.0  distance and # of slots for P.C.
   PSTRESS=    0.0 pullay stress

  Mass of Ions in am
   POMASS =  16.00 47.88
  Ionic Valenz
   ZVAL   =   6.00 12.00
  Atomic Wigner-Seitz radii
   RWIGS  =  -1.00 -1.00
  virtual crystal weights 
   VCA    =   1.00  1.00
   NELECT =     774.0000    total number of electrons
   NUPDOWN=      -1.0000    fix difference up-down

 DOS related values:
   EMIN   =  10.00;   EMAX   =-10.00  energy-range for DOS
   EFERMI =   0.00
   ISMEAR =     1;   SIGMA  =   0.10  broadening in eV -4-tet -1-fermi 0-gaus

 Electronic relaxation 2 (details)
   IALGO  =     38    algorithm
   LDIAG  =      T    sub-space diagonalisation (order eigenvalues)
   LSUBROT=      F    optimize rotation matrix (better conditioning)
   TURBO    =      0    0=normal 1=particle mesh
   IRESTART =      0    0=no restart 2=restart with 2 vectors
   NREBOOT  =      0    no. of reboots
   NMIN     =      0    reboot dimension
   EREF     =   0.00    reference energy to select bands
   IMIX   =      4    mixing-type and parameters
     AMIX     =   0.40;   BMIX     =  1.00
     AMIX_MAG =   1.60;   BMIX_MAG =  1.00
     AMIN     =   0.10
     WC   =   100.;   INIMIX=   1;  MIXPRE=   1;  MAXMIX= -45

 Intra band minimization:
   WEIMIN = 0.0010     energy-eigenvalue tresh-hold
   EBREAK =  0.54E-09  absolut break condition
   DEPER  =   0.30     relativ break condition  

   TIME   =   0.40     timestep for ELM

  volume/ion in A,a.u.               =      17.17       115.86
  Fermi-wavevector in a.u.,A,eV,Ry     =   1.449117  2.738434 28.571412  2.099940
  Thomas-Fermi vector in A             =   2.566880
 
 Write flags
   LWAVE        =      F    write WAVECAR
   LDOWNSAMPLE  =      F    k-point downsampling of WAVECAR
   LCHARG       =      F    write CHGCAR
   LVTOT        =      F    write LOCPOT, total local potential
   LVHAR        =      F    write LOCPOT, Hartree potential only
   LELF         =      F    write electronic localiz. function (ELF)
   LORBIT       =      0    0 simple, 1 ext, 2 COOP (PROOUT), +10 PAW based schemes


 Dipole corrections
   LMONO  =      F    monopole corrections only (constant potential shift)
   LDIPOL =      F    correct potential (dipole corrections)
   IDIPOL =      0    1-x, 2-y, 3-z, 4-all directions 
   EPSILON=  1.0000000 bulk dielectric constant

 Exchange correlation treatment:
   GGA     =    --    GGA type
   LEXCH   =     8    internal setting for exchange type
   VOSKOWN=      0    Vosko Wilk Nusair interpolation
   LHFCALC =     F    Hartree Fock is set to
   LHFONE  =     F    Hartree Fock one center treatment
   AEXX    =    0.0000 exact exchange contribution

 Linear response parameters
   LEPSILON=     F    determine dielectric tensor
   LRPA    =     F    only Hartree local field effects (RPA)
   LNABLA  =     F    use nabla operator in PAW spheres
   LVEL    =     F    velocity operator in full k-point grid
   LINTERFAST=   F  fast interpolation
   KINTER  =     0    interpolate to denser k-point grid
   CSHIFT  =0.1000    complex shift for real part using Kramers Kronig
   OMEGAMAX=  -1.0    maximum frequency
   DEG_THRESHOLD= 0.2000000E-02 threshold for treating states as degnerate
   RTIME   =   -0.100 relaxation time in fs
  (WPLASMAI=    0.000 imaginary part of plasma frequency in eV, 0.658/RTIME)
   DFIELD  = 0.0000000 0.0000000 0.0000000 field for delta impulse in time
 
 Orbital magnetization related:
   ORBITALMAG=     F  switch on orbital magnetization
   LCHIMAG   =     F  perturbation theory with respect to B field
   DQ        =  0.001000  dq finite difference perturbation B field
   LLRAUG    =     F  two centre corrections for induced B field



--------------------------------------------------------------------------------------------------------


 conjugate gradient relaxation of ions
 charge density and potential will be updated during run
 non-spin polarized calculation
 Variant of blocked Davidson
 Davidson routine will perform the subspace rotation
 perform sub-space diagonalisation
    after iterative eigenvector-optimisation
 modified Broyden-mixing scheme, WC =      100.0
 initial mixing is a Kerker type mixing with AMIX =  0.4000 and BMIX =      1.0000
 Hartree-type preconditioning will be used
 using additional bands           77
 reciprocal scheme for non local part
 use partial core corrections
 calculate Harris-corrections to forces 
   (improved forces if not selfconsistent)
 use gradient corrections 
 use of overlap-Matrix (Vanderbilt PP)
 Methfessel and Paxton  Order N= 1 SIGMA  =   0.10


--------------------------------------------------------------------------------------------------------


  energy-cutoff  :      500.00
  volume of cell :     1115.98
      direct lattice vectors                 reciprocal lattice vectors
    11.743347000 -0.000004623 -0.000003630     0.085154618  0.049164491  0.000000012
    -5.871712711 10.170011710  0.000004806     0.000000039  0.098328326 -0.000000027
    -0.000002751  0.000002557  9.344197851     0.000000033 -0.000000031  0.107018282

  length of vectors
    11.743347000 11.743344853  9.344197851     0.098328308  0.098328326  0.107018282


 
 k-points in units of 2pi/SCALE and weight: K-POINTS                                
   0.00000000  0.00000000  0.00000000       0.037
   0.02838487  0.01638816  0.00000000       0.074
   0.00000001  0.03277611 -0.00000001       0.074
   0.02838489  0.04916427 -0.00000001       0.074
  -0.02838486  0.01638794 -0.00000001       0.074
   0.00000001 -0.00000001  0.03567276       0.074
   0.02838488  0.01638815  0.03567276       0.074
  -0.02838486 -0.01638817  0.03567276       0.074
   0.00000002  0.03277610  0.03567275       0.074
   0.02838490  0.04916426  0.03567276       0.074
  -0.02838485  0.01638793  0.03567275       0.074
  -0.00000000 -0.03277612  0.03567277       0.074
   0.02838487 -0.01638796  0.03567277       0.074
  -0.02838487 -0.04916428  0.03567277       0.074
 
 k-points in reciprocal lattice and weights: K-POINTS                                
   0.00000000  0.00000000  0.00000000       0.037
   0.33333333 -0.00000000  0.00000000       0.074
   0.00000000  0.33333333  0.00000000       0.074
   0.33333333  0.33333333 -0.00000000       0.074
  -0.33333333  0.33333333 -0.00000000       0.074
   0.00000000  0.00000000  0.33333333       0.074
   0.33333333 -0.00000000  0.33333333       0.074
  -0.33333333  0.00000000  0.33333333       0.074
  -0.00000000  0.33333333  0.33333333       0.074
   0.33333333  0.33333333  0.33333333       0.074
  -0.33333333  0.33333333  0.33333333       0.074
  -0.00000000 -0.33333333  0.33333333       0.074
   0.33333333 -0.33333333  0.33333333       0.074
  -0.33333333 -0.33333333  0.33333333       0.074
 
 position of ions in fractional coordinates (direct lattice) 
   0.58339051  0.41674500  0.62499408
   0.16634988  0.08280702  0.24976865
   0.99973098  0.00030348  0.00010978
   0.41617557  0.08233780  0.25011691
   0.24947602  0.99968142  0.00023360
   0.66646466  0.08280277  0.24976889
   0.50021133  0.99967758  0.00023344
   0.91666713  0.08332841  0.25129625
   0.75057841  0.00030081  0.00010693
   0.16633793  0.33354527  0.24977022
   0.99972141  0.24943160  0.00011873
   0.41534678  0.33268887  0.25093555
   0.24899752  0.24950911  0.99988755
   0.66735885  0.33268859  0.25093787
   0.49934993  0.24868445  0.99906412
   0.91722419  0.33354724  0.24977146
   0.75052607  0.24950604  0.99989302
   0.16696214  0.58390974  0.24989860
   0.00034523  0.49979088  0.00023085
   0.41616416  0.58386803  0.25009664
   0.24946063  0.49979332  0.00023187
   0.66735517  0.58469395  0.25094842
   0.49935154  0.50069605  0.99905482
   0.91772504  0.58387191  0.25008961
   0.75135613  0.50069418  0.99905132
   0.16697141  0.83306274  0.24988933
   0.00035650  0.75057156  0.00022827
   0.41610000  0.83305982  0.24988686
   0.24999935  0.74999637  0.99870812
   0.66645691  0.83368511  0.24977283
   0.50021859  0.75056640  0.00022923
   0.91724075  0.83368817  0.24977384
   0.75053839  0.75106545  0.99991503
   0.16645933  0.08354734  0.75076367
   0.00014516  0.99992368  0.49997028
   0.41575771  0.08150021  0.75266364
   0.25020964  0.99979246  0.49923087
   0.66710207  0.08354561  0.75076457
   0.49959265  0.99978797  0.49923173
   0.91668457  0.08335417  0.75033557
   0.74979065  0.99991991  0.49997249
   0.16644312  0.33292523  0.75076051
   0.00013264  0.25024563  0.49996241
   0.41604621  0.33305619  0.75435508
   0.24815531  0.24908995  0.49732631
   0.66703379  0.33306121  0.75434690
   0.49970655  0.24938838  0.49563054
   0.91650070  0.33292274  0.75076025
   0.75095138  0.24908484  0.49732279
   0.16657477  0.58312763  0.75001996
   0.00025335  0.50044260  0.49922873
   0.41574136  0.58429489  0.75267613
   0.25020461  0.50044025  0.49922855
   0.66701930  0.58400985  0.75432883
   0.49972226  0.50037267  0.49565330
   0.91857705  0.58429898  0.75267986
   0.75066730  0.50036874  0.49565706
   0.16658735  0.83348148  0.75002735
   0.00027027  0.74984264  0.49923233
   0.41690876  0.83347784  0.75002974
   0.25001700  0.75002137  0.49965865
   0.66711016  0.83359813  0.75076371
   0.49958458  0.74984165  0.49923299
   0.91650481  0.83360341  0.75076244
   0.75096677  0.75192201  0.49731010
 
 position of ions in cartesian coordinates  (Angst):
   4.40394855  4.23830042  5.84006825
   1.46728470  0.84214822  2.33388744
  11.73840590  0.00308173  0.00102215
   4.40382958  0.83737512  2.33714077
  -2.94015865 10.16677055  0.00218670
   7.34033098  0.84210270  2.33388792
   0.00433568 10.16673040  0.00218434
  10.27545903  0.84744728  2.34815893
   8.81253638  0.00305581  0.00099649
  -0.00511867  3.39215916  2.33390332
  10.27548472  2.53671766  0.00110703
   2.92410724  3.38344840  2.34479148
   1.45901571  2.53751194  9.34314740
   5.88357399  3.38344440  2.34481226
   4.40383308  2.52912401  9.33545220
   8.81278762  3.39217576  2.33391222
   7.34865752  2.53747840  9.34319666
  -1.46785654  5.93836877  2.33510413
  -2.93057427  5.08287911  0.00215946
   1.45885415  5.93794340  2.33695377
  -0.00514010  5.08290280  0.00216813
   4.40382779  5.94634188  2.34491203
   2.92411232  5.09208494  9.33536650
   7.34883476  5.93798059  2.33688624
   5.88350059  5.09206476  9.33533289
  -2.93070258  8.47225772  2.33501875
  -4.40295403  7.63332154  0.00213657
  -0.00508191  8.47222682  2.33499471
  -1.46793688  7.62747329  9.33212892
   2.93127467  8.47858485  2.33392829
   1.46713023  7.63326678  0.00214377
   5.87629828  8.47861490  2.33393687
   4.40378944  7.63834353  9.34340472
   1.46422162  0.84967854  7.01528409
  -5.86956132 10.16923682  4.67182598
   4.40383912  0.82885813  7.03303684
  -2.93219680 10.16790112  4.66491592
   7.34345320  0.84965869  7.01529064
  -0.00357921 10.16785431  4.66492300
  10.27551122  0.84771058  7.01128112
   2.93380793 10.16919504  4.67184395
  -0.00024407  3.38585462  7.01525576
  -1.46781416  2.54500227  4.67174889
   2.93016268  3.38718538  7.04884318
   1.45158785  2.53324788  4.64711569
   5.87756748  3.38723528  7.04876583
   4.40388917  2.53628173  4.63126919
   8.80795699  3.38582590  7.01525057
   7.35612661  2.53319358  4.64708102
  -1.46781463  5.93041600  7.00833712
  -2.93548135  5.08950838  4.66489440
   1.45138126  5.94228586  7.03315597
  -0.00020319  5.08948334  4.66489186
   4.40389894  5.93938584  7.04859818
   2.93036597  5.08879491  4.63148309
   7.35633129  5.94232512  7.03318903
   5.87732369  5.08875378  4.63151733
  -2.93767280  8.47651755  7.00840738
  -4.39968810  7.62590974  4.66492925
   0.00195972  8.47647937  7.00842881
  -1.46787505  7.62772626  4.66891200
   2.93945530  8.47770154  7.01528628
   1.46393902  7.62589728  4.66493361
   5.86815222  8.47775411  7.01527349
   4.40379199  7.64705347  4.64696482
 


--------------------------------------------------------------------------------------------------------


 k-point  1 :   0.0000 0.0000 0.0000  plane waves:   28403
 k-point  2 :   0.3333-0.0000 0.0000  plane waves:   28315
 k-point  3 :   0.0000 0.3333 0.0000  plane waves:   28315
 k-point  4 :   0.3333 0.3333-0.0000  plane waves:   28296
 k-point  5 :  -0.3333 0.3333-0.0000  plane waves:   28315
 k-point  6 :   0.0000 0.0000 0.3333  plane waves:   28390
 k-point  7 :   0.3333-0.0000 0.3333  plane waves:   28326
 k-point  8 :  -0.3333 0.0000 0.3333  plane waves:   28325
 k-point  9 :  -0.0000 0.3333 0.3333  plane waves:   28326
 k-point 10 :   0.3333 0.3333 0.3333  plane waves:   28290
 k-point 11 :  -0.3333 0.3333 0.3333  plane waves:   28326
 k-point 12 :  -0.0000-0.3333 0.3333  plane waves:   28326
 k-point 13 :   0.3333-0.3333 0.3333  plane waves:   28326
 k-point 14 :  -0.3333-0.3333 0.3333  plane waves:   28290

 maximum and minimum number of plane-waves per node :      7123     7062

 maximum number of plane-waves:     28403
 maximum index in each direction: 
   IXMAX=   21   IYMAX=   21   IZMAX=   17
   IXMIN=  -21   IYMIN=  -21   IZMIN=  -17


 parallel 3D FFT for wavefunctions:
    minimum data exchange during FFTs selected (reduces bandwidth)
 parallel 3D FFT for charge:
    minimum data exchange during FFTs selected (reduces bandwidth)


 total amount of memory used by VASP MPI-rank0   295669. kBytes
=======================================================================

   base      :      30000. kBytes
   nonl-proj :      35990. kBytes
   fftplans  :      14406. kBytes
   grid      :      22936. kBytes
   one-center:        264. kBytes
   wavefun   :     192073. kBytes
 
     INWAV:  cpu time    0.0000: real time    0.0001
 Broyden mixing: mesh for mixing (old mesh)
   NGX = 43   NGY = 43   NGZ = 35
  (NGX  =180   NGY  =180   NGZ  =140)
  gives a total of  64715 points

 initial charge density was supplied:
 charge density of overlapping atoms calculated
 number of electron     774.0000000 magnetization 
 keeping initial charge density in first step


--------------------------------------------------------------------------------------------------------


 Maximum index for augmentation-charges         1719 (set IRDMAX)


--------------------------------------------------------------------------------------------------------


 First call to EWALD:  gamma=   0.171
 Maximum number of real-space cells 3x 3x 3
 Maximum number of reciprocal cells 3x 3x 3

    FEWALD:  cpu time    0.0055: real time    0.0055


--------------------------------------- Iteration      1(   1)  ---------------------------------------


    POTLOK:  cpu time    0.3803: real time    0.3847
    SETDIJ:  cpu time    0.0232: real time    0.0232
     EDDAV:  cpu time  195.1374: real time  195.2171
       DOS:  cpu time    0.0054: real time    0.0054
    --------------------------------------------
      LOOP:  cpu time  195.5463: real time  195.6304

 eigenvalue-minimisations  : 12992
 total energy-change (2. order) : 0.1203323E+05  (-0.3683709E+05)
 number of electron     774.0000000 magnetization 
 augmentation part      774.0000000 magnetization 

 Free energy of the ion-electron system (eV)
  ---------------------------------------------------
  alpha Z        PSCENC =      5724.37762586
  Ewald energy   TEWEN  =    -74286.70658625
  -Hartree energ DENC   =    -25015.27886221
  -exchange      EXHF   =         0.00000000
  -V(xc)+E(xc)   XCENC  =      3995.37424485
  PAW double counting   =     71714.05200127   -70459.44140547
  entropy T*S    EENTRO =        -0.00219696
  eigenvalues    EBANDS =     -1671.51450257
  atomic energy  EATOM  =    102032.36766181
  Solvation  Ediel_sol  =         0.00000000
  ---------------------------------------------------
  free energy    TOTEN  =     12033.22798031 eV

  energy without entropy =    12033.23017727  energy(sigma->0) =    12033.22871263


--------------------------------------------------------------------------------------------------------




--------------------------------------- Iteration      1(   2)  ---------------------------------------


     EDDAV:  cpu time  199.8674: real time  199.9600
       DOS:  cpu time    0.0057: real time    0.0057
    --------------------------------------------
      LOOP:  cpu time  199.8731: real time  199.9657

 eigenvalue-minimisations  : 13032
 total energy-change (2. order) :-0.1092344E+05  (-0.1079671E+05)
 number of electron     774.0000000 magnetization 
 augmentation part      774.0000000 magnetization 

 Free energy of the ion-electron system (eV)
  ---------------------------------------------------
  alpha Z        PSCENC =      5724.37762586
  Ewald energy   TEWEN  =    -74286.70658625
  -Hartree energ DENC   =    -25015.27886221
  -exchange      EXHF   =         0.00000000
  -V(xc)+E(xc)   XCENC  =      3995.37424485
  PAW double counting   =     71714.05200127   -70459.44140547
  entropy T*S    EENTRO =        -0.00346689
  eigenvalues    EBANDS =    -12594.94859089
  atomic energy  EATOM  =    102032.36766181
  Solvation  Ediel_sol  =         0.00000000
  ---------------------------------------------------
  free energy    TOTEN  =      1109.79262206 eV

  energy without entropy =     1109.79608895  energy(sigma->0) =     1109.79377769


--------------------------------------------------------------------------------------------------------




--------------------------------------- Iteration      1(   3)  ---------------------------------------


     EDDAV:  cpu time  274.5322: real time  274.6843
       DOS:  cpu time    0.0066: real time    0.0066
    --------------------------------------------
      LOOP:  cpu time  274.5388: real time  274.6909

 eigenvalue-minimisations  : 19824
 total energy-change (2. order) :-0.1339467E+04  (-0.1255561E+04)
 number of electron     774.0000000 magnetization 
 augmentation part      774.0000000 magnetization 

 Free energy of the ion-electron system (eV)
  ---------------------------------------------------
  alpha Z        PSCENC =      5724.37762586
  Ewald energy   TEWEN  =    -74286.70658625
  -Hartree energ DENC   =    -25015.27886221
  -exchange      EXHF   =         0.00000000
  -V(xc)+E(xc)   XCENC  =      3995.37424485
  PAW double counting   =     71714.05200127   -70459.44140547
  entropy T*S    EENTRO =         0.00301091
  eigenvalues    EBANDS =    -13934.42176579
  atomic energy  EATOM  =    102032.36766181
  Solvation  Ediel_sol  =         0.00000000
  ---------------------------------------------------
  free energy    TOTEN  =      -229.67407503 eV

  energy without entropy =     -229.67708594  energy(sigma->0) =     -229.67507867


--------------------------------------------------------------------------------------------------------




--------------------------------------- Iteration      1(   4)  ---------------------------------------


     EDDAV:  cpu time  308.7784: real time  308.8959
       DOS:  cpu time    0.0065: real time    0.0065
    --------------------------------------------
      LOOP:  cpu time  308.7848: real time  308.9024

 eigenvalue-minimisations  : 22384
 total energy-change (2. order) :-0.3142253E+03  (-0.3059262E+03)
 number of electron     774.0000000 magnetization 
 augmentation part      774.0000000 magnetization 

 Free energy of the ion-electron system (eV)
  ---------------------------------------------------
  alpha Z        PSCENC =      5724.37762586
  Ewald energy   TEWEN  =    -74286.70658625
  -Hartree energ DENC   =    -25015.27886221
  -exchange      EXHF   =         0.00000000
  -V(xc)+E(xc)   XCENC  =      3995.37424485
  PAW double counting   =     71714.05200127   -70459.44140547
  entropy T*S    EENTRO =         0.00907527
  eigenvalues    EBANDS =    -14248.65309537
  atomic energy  EATOM  =    102032.36766181
  Solvation  Ediel_sol  =         0.00000000
  ---------------------------------------------------
  free energy    TOTEN  =      -543.89934026 eV

  energy without entropy =     -543.90841553  energy(sigma->0) =     -543.90236535


--------------------------------------------------------------------------------------------------------




--------------------------------------- Iteration      1(   5)  ---------------------------------------


     EDDAV:  cpu time  306.6881: real time  306.7706
       DOS:  cpu time    0.0065: real time    0.0065
    CHARGE:  cpu time   10.1380: real time   10.1398
    MIXING:  cpu time    0.0120: real time    0.0120
    --------------------------------------------
      LOOP:  cpu time  316.8446: real time  316.9290

 eigenvalue-minimisations  : 22344
 total energy-change (2. order) :-0.4179318E+02  (-0.4134188E+02)
 number of electron     774.0000119 magnetization 
 augmentation part      219.2839778 magnetization 

 Broyden mixing:
  rms(total) = 0.42972E+01    rms(broyden)= 0.42971E+01
  rms(prec ) = 0.59259E+01
  weight for this iteration     100.00

 Free energy of the ion-electron system (eV)
  ---------------------------------------------------
  alpha Z        PSCENC =      5724.37762586
  Ewald energy   TEWEN  =    -74286.70658625
  -Hartree energ DENC   =    -25015.27886221
  -exchange      EXHF   =         0.00000000
  -V(xc)+E(xc)   XCENC  =      3995.37424485
  PAW double counting   =     71714.05200127   -70459.44140547
  entropy T*S    EENTRO =         0.00138549
  eigenvalues    EBANDS =    -14290.43858719
  atomic energy  EATOM  =    102032.36766181
  Solvation  Ediel_sol  =         0.00000000
  ---------------------------------------------------
  free energy    TOTEN  =      -585.69252185 eV

  energy without entropy =     -585.69390734  energy(sigma->0) =     -585.69298368


--------------------------------------------------------------------------------------------------------




--------------------------------------- Iteration      1(   6)  ---------------------------------------


    POTLOK:  cpu time    0.3825: real time    0.3863
    SETDIJ:  cpu time    0.0234: real time    0.0234
     EDDAV:  cpu time  254.3944: real time  254.5060
       DOS:  cpu time    0.0065: real time    0.0065
    CHARGE:  cpu time   10.0478: real time   10.0509
    MIXING:  cpu time    0.0125: real time    0.0125
    --------------------------------------------
      LOOP:  cpu time  264.8671: real time  264.9857

 eigenvalue-minimisations  : 17624
 total energy-change (2. order) : 0.6802457E+02  (-0.2692237E+02)
 number of electron     774.0000125 magnetization 
 augmentation part      233.5757118 magnetization 

 Broyden mixing:
  rms(total) = 0.14178E+01    rms(broyden)= 0.14176E+01
  rms(prec ) = 0.18259E+01
  weight for this iteration     100.00

 eigenvalues of (default mixing * dielectric matrix)
  average eigenvalue GAMMA=   1.0889
  1.0889

 Free energy of the ion-electron system (eV)
  ---------------------------------------------------
  alpha Z        PSCENC =      5724.37762586
  Ewald energy   TEWEN  =    -74286.70658625
  -Hartree energ DENC   =    -23570.46389177
  -exchange      EXHF   =         0.00000000
  -V(xc)+E(xc)   XCENC  =      3923.36143461
  PAW double counting   =     69523.53457939   -68205.09438799
  entropy T*S    EENTRO =         0.02788332
  eigenvalues    EBANDS =    -15659.07227007
  atomic energy  EATOM  =    102032.36766181
  Solvation  Ediel_sol  =         0.00000000
  ---------------------------------------------------
  free energy    TOTEN  =      -517.66795110 eV

  energy without entropy =     -517.69583441  energy(sigma->0) =     -517.67724554


--------------------------------------------------------------------------------------------------------




--------------------------------------- Iteration      1(   7)  ---------------------------------------


    POTLOK:  cpu time    0.3834: real time    0.3882
    SETDIJ:  cpu time    0.0234: real time    0.0234
     EDDAV:  cpu time  268.9060: real time  269.0271
       DOS:  cpu time    0.0066: real time    0.0066
    CHARGE:  cpu time   10.1676: real time   10.1925
    MIXING:  cpu time    0.0126: real time    0.0126
    --------------------------------------------
      LOOP:  cpu time  279.4997: real time  279.6503

 eigenvalue-minimisations  : 18680
 total energy-change (2. order) :-0.2167629E+01  (-0.4516503E+01)
 number of electron     774.0000122 magnetization 
 augmentation part      232.0261528 magnetization 

 Broyden mixing:
  rms(total) = 0.15374E+01    rms(broyden)= 0.15374E+01
  rms(prec ) = 0.26533E+01
  weight for this iteration     100.00

 eigenvalues of (default mixing * dielectric matrix)
  average eigenvalue GAMMA=   0.7433
  1.0079  0.4787

 Free energy of the ion-electron system (eV)
  ---------------------------------------------------
  alpha Z        PSCENC =      5724.37762586
  Ewald energy   TEWEN  =    -74286.70658625
  -Hartree energ DENC   =    -23320.32467578
  -exchange      EXHF   =         0.00000000
  -V(xc)+E(xc)   XCENC  =      3911.55733802
  PAW double counting   =     69619.52943292   -68243.14579892
  entropy T*S    EENTRO =         0.01321840
  eigenvalues    EBANDS =    -15957.50379643
  atomic energy  EATOM  =    102032.36766181
  Solvation  Ediel_sol  =         0.00000000
  ---------------------------------------------------
  free energy    TOTEN  =      -519.83558036 eV

  energy without entropy =     -519.84879877  energy(sigma->0) =     -519.83998650


--------------------------------------------------------------------------------------------------------




--------------------------------------- Iteration      1(   8)  ---------------------------------------


    POTLOK:  cpu time    0.3850: real time    0.3902
    SETDIJ:  cpu time    0.0233: real time    0.0233
     EDDAV:  cpu time  282.6196: real time  282.7370
       DOS:  cpu time    0.0067: real time    0.0067
    CHARGE:  cpu time   10.1790: real time   10.1814
    MIXING:  cpu time    0.0126: real time    0.0126
    --------------------------------------------
      LOOP:  cpu time  293.2263: real time  293.3512

 eigenvalue-minimisations  : 19800
 total energy-change (2. order) : 0.1238867E+01  (-0.1137877E+01)
 number of electron     774.0000122 magnetization 
 augmentation part      230.3520941 magnetization 

 Broyden mixing:
  rms(total) = 0.12558E+01    rms(broyden)= 0.12558E+01
  rms(prec ) = 0.15057E+01
  weight for this iteration     100.00

 eigenvalues of (default mixing * dielectric matrix)
  average eigenvalue GAMMA=   0.8254
  1.1244  1.1244  0.2275

 Free energy of the ion-electron system (eV)
  ---------------------------------------------------
  alpha Z        PSCENC =      5724.37762586
  Ewald energy   TEWEN  =    -74286.70658625
  -Hartree energ DENC   =    -23351.66451070
  -exchange      EXHF   =         0.00000000
  -V(xc)+E(xc)   XCENC  =      3913.34130789
  PAW double counting   =     69780.72643287   -68379.47454647
  entropy T*S    EENTRO =         0.02987684
  eigenvalues    EBANDS =    -15951.59397476
  atomic energy  EATOM  =    102032.36766181
  Solvation  Ediel_sol  =         0.00000000
  ---------------------------------------------------
  free energy    TOTEN  =      -518.59671292 eV

  energy without entropy =     -518.62658976  energy(sigma->0) =     -518.60667187


--------------------------------------------------------------------------------------------------------




--------------------------------------- Iteration      1(   9)  ---------------------------------------


    POTLOK:  cpu time    0.3810: real time    0.3879
    SETDIJ:  cpu time    0.0234: real time    0.0234
     EDDAV:  cpu time  274.6229: real time  274.7427
       DOS:  cpu time    0.0075: real time    0.0075
    CHARGE:  cpu time   10.2424: real time   10.2435
    MIXING:  cpu time    0.0127: real time    0.0127
    --------------------------------------------
      LOOP:  cpu time  285.2899: real time  285.4177

 eigenvalue-minimisations  : 19464
 total energy-change (2. order) :-0.3904962E+00  (-0.3222540E+00)
 number of electron     774.0000122 magnetization 
 augmentation part      229.1392055 magnetization 

 Broyden mixing:
  rms(total) = 0.87384E+00    rms(broyden)= 0.87383E+00
  rms(prec ) = 0.11852E+01
  weight for this iteration     100.00

 eigenvalues of (default mixing * dielectric matrix)
  average eigenvalue GAMMA=   1.0472
  1.6984  1.5281  0.7372  0.2250

 Free energy of the ion-electron system (eV)
  ---------------------------------------------------
  alpha Z        PSCENC =      5724.37762586
  Ewald energy   TEWEN  =    -74286.70658625
  -Hartree energ DENC   =    -23467.60258566
  -exchange      EXHF   =         0.00000000
  -V(xc)+E(xc)   XCENC  =      3919.55615611
  PAW double counting   =     70253.69808495   -68767.15993877
  entropy T*S    EENTRO =         0.02895943
  eigenvalues    EBANDS =    -15927.54658661
  atomic energy  EATOM  =    102032.36766181
  Solvation  Ediel_sol  =         0.00000000
  ---------------------------------------------------
  free energy    TOTEN  =      -518.98720914 eV

  energy without entropy =     -519.01616857  energy(sigma->0) =     -518.99686228


--------------------------------------------------------------------------------------------------------




--------------------------------------- Iteration      1(  10)  ---------------------------------------


    POTLOK:  cpu time    0.3841: real time    0.3890
    SETDIJ:  cpu time    0.0233: real time    0.0233
     EDDAV:  cpu time  267.1873: real time  267.2976
       DOS:  cpu time    0.0072: real time    0.0071
    CHARGE:  cpu time   10.0725: real time   10.0737
    MIXING:  cpu time    0.0131: real time    0.0131
    --------------------------------------------
      LOOP:  cpu time  277.6874: real time  277.8039

 eigenvalue-minimisations  : 18688
 total energy-change (2. order) :-0.4611294E+00  (-0.5384803E+00)
 number of electron     774.0000121 magnetization 
 augmentation part      228.7428857 magnetization 

 Broyden mixing:
  rms(total) = 0.55504E+00    rms(broyden)= 0.55501E+00
  rms(prec ) = 0.11615E+01
  weight for this iteration     100.00

 eigenvalues of (default mixing * dielectric matrix)
  average eigenvalue GAMMA=   1.0752
  2.6652  1.1126  1.1126  0.2162  0.2697

 Free energy of the ion-electron system (eV)
  ---------------------------------------------------
  alpha Z        PSCENC =      5724.37762586
  Ewald energy   TEWEN  =    -74286.70658625
  -Hartree energ DENC   =    -23573.79678140
  -exchange      EXHF   =         0.00000000
  -V(xc)+E(xc)   XCENC  =      3925.25741604
  PAW double counting   =     70726.69524491   -69140.18768614
  entropy T*S    EENTRO =         0.02173281
  eigenvalues    EBANDS =    -15927.47696621
  atomic energy  EATOM  =    102032.36766181
  Solvation  Ediel_sol  =         0.00000000
  ---------------------------------------------------
  free energy    TOTEN  =      -519.44833857 eV

  energy without entropy =     -519.47007138  energy(sigma->0) =     -519.45558284


--------------------------------------------------------------------------------------------------------




--------------------------------------- Iteration      1(  11)  ---------------------------------------


    POTLOK:  cpu time    0.3842: real time    0.3894
    SETDIJ:  cpu time    0.0233: real time    0.0233
     EDDAV:  cpu time  269.3508: real time  269.4382
       DOS:  cpu time    0.0067: real time    0.0067
    CHARGE:  cpu time   10.1940: real time   10.1993
    MIXING:  cpu time    0.0133: real time    0.0133
    --------------------------------------------
      LOOP:  cpu time  279.9723: real time  280.0702

 eigenvalue-minimisations  : 18808
 total energy-change (2. order) : 0.3490308E+00  (-0.2229271E+00)
 number of electron     774.0000121 magnetization 
 augmentation part      228.9275508 magnetization 

 Broyden mixing:
  rms(total) = 0.27036E+00    rms(broyden)= 0.27034E+00
  rms(prec ) = 0.48921E+00
  weight for this iteration     100.00

 eigenvalues of (default mixing * dielectric matrix)
  average eigenvalue GAMMA=   0.9349
  2.6488  1.1049  1.1049  0.2180  0.2662  0.2662

 Free energy of the ion-electron system (eV)
  ---------------------------------------------------
  alpha Z        PSCENC =      5724.37762586
  Ewald energy   TEWEN  =    -74286.70658625
  -Hartree energ DENC   =    -23602.24664350
  -exchange      EXHF   =         0.00000000
  -V(xc)+E(xc)   XCENC  =      3927.19779326
  PAW double counting   =     70994.09791638   -69326.53611766
  entropy T*S    EENTRO =         0.03369569
  eigenvalues    EBANDS =    -15981.68465336
  atomic energy  EATOM  =    102032.36766181
  Solvation  Ediel_sol  =         0.00000000
  ---------------------------------------------------
  free energy    TOTEN  =      -519.09930778 eV

  energy without entropy =     -519.13300347  energy(sigma->0) =     -519.11053968


--------------------------------------------------------------------------------------------------------




--------------------------------------- Iteration      1(  12)  ---------------------------------------


    POTLOK:  cpu time    0.3864: real time    0.3906
    SETDIJ:  cpu time    0.0233: real time    0.0233
     EDDAV:  cpu time  280.5768: real time  280.6672
       DOS:  cpu time    0.0069: real time    0.0069
    CHARGE:  cpu time   10.2550: real time   10.2562
    MIXING:  cpu time    0.0137: real time    0.0137
    --------------------------------------------
      LOOP:  cpu time  291.2621: real time  291.3579

 eigenvalue-minimisations  : 19720
 total energy-change (2. order) : 0.9198214E-01  (-0.6579076E-01)
 number of electron     774.0000121 magnetization 
 augmentation part      228.6868179 magnetization 

 Broyden mixing:
  rms(total) = 0.81606E-01    rms(broyden)= 0.81595E-01
  rms(prec ) = 0.11650E+00
  weight for this iteration     100.00

 eigenvalues of (default mixing * dielectric matrix)
  average eigenvalue GAMMA=   0.8761
  2.6179  1.0646  1.0646  0.6125  0.2170  0.3001  0.2557

 Free energy of the ion-electron system (eV)
  ---------------------------------------------------
  alpha Z        PSCENC =      5724.37762586
  Ewald energy   TEWEN  =    -74286.70658625
  -Hartree energ DENC   =    -23597.98740969
  -exchange      EXHF   =         0.00000000
  -V(xc)+E(xc)   XCENC  =      3926.99830793
  PAW double counting   =     70986.35846247   -69320.09682337
  entropy T*S    EENTRO =         0.03096788
  eigenvalues    EBANDS =    -15984.34953226
  atomic energy  EATOM  =    102032.36766181
  Solvation  Ediel_sol  =         0.00000000
  ---------------------------------------------------
  free energy    TOTEN  =      -519.00732564 eV

  energy without entropy =     -519.03829351  energy(sigma->0) =     -519.01764826


--------------------------------------------------------------------------------------------------------




--------------------------------------- Iteration      1(  13)  ---------------------------------------


    POTLOK:  cpu time    0.3841: real time    0.3887
    SETDIJ:  cpu time    0.0232: real time    0.0232
     EDDAV:  cpu time  285.0447: real time  285.1703
       DOS:  cpu time    0.0067: real time    0.0066
    CHARGE:  cpu time   10.2358: real time   10.2440
    MIXING:  cpu time    0.0135: real time    0.0135
    --------------------------------------------
      LOOP:  cpu time  295.7080: real time  295.8465

 eigenvalue-minimisations  : 20304
 total energy-change (2. order) :-0.5518204E-02  (-0.1207386E-01)
 number of electron     774.0000121 magnetization 
 augmentation part      228.6460673 magnetization 

 Broyden mixing:
  rms(total) = 0.52796E-01    rms(broyden)= 0.52793E-01
  rms(prec ) = 0.72385E-01
  weight for this iteration     100.00

 eigenvalues of (default mixing * dielectric matrix)
  average eigenvalue GAMMA=   0.8153
  2.5869  1.0169  1.0169  0.7865  0.3716  0.2154  0.2641  0.2641

 Free energy of the ion-electron system (eV)
  ---------------------------------------------------
  alpha Z        PSCENC =      5724.37762586
  Ewald energy   TEWEN  =    -74286.70658625
  -Hartree energ DENC   =    -23595.95780354
  -exchange      EXHF   =         0.00000000
  -V(xc)+E(xc)   XCENC  =      3926.88600208
  PAW double counting   =     70982.07596002   -69316.69153456
  entropy T*S    EENTRO =         0.03094402
  eigenvalues    EBANDS =    -15985.39511328
  atomic energy  EATOM  =    102032.36766181
  Solvation  Ediel_sol  =         0.00000000
  ---------------------------------------------------
  free energy    TOTEN  =      -519.01284384 eV

  energy without entropy =     -519.04378786  energy(sigma->0) =     -519.02315852


--------------------------------------------------------------------------------------------------------




--------------------------------------- Iteration      1(  14)  ---------------------------------------


    POTLOK:  cpu time    0.3819: real time    0.3868
    SETDIJ:  cpu time    0.0233: real time    0.0233
     EDDAV:  cpu time  272.3001: real time  272.3650
       DOS:  cpu time    0.0072: real time    0.0071
    CHARGE:  cpu time   10.1791: real time   10.1803
    MIXING:  cpu time    0.0137: real time    0.0137
    --------------------------------------------
      LOOP:  cpu time  282.9051: real time  282.9762

 eigenvalue-minimisations  : 19224
 total energy-change (2. order) : 0.1828623E-02  (-0.1967756E-02)
 number of electron     774.0000121 magnetization 
 augmentation part      228.6360600 magnetization 

 Broyden mixing:
  rms(total) = 0.29549E-01    rms(broyden)= 0.29548E-01
  rms(prec ) = 0.36304E-01
  weight for this iteration     100.00

 eigenvalues of (default mixing * dielectric matrix)
  average eigenvalue GAMMA=   0.8496
  2.5301  1.1066  1.1066  0.9393  0.9393  0.2166  0.2809  0.2809  0.2462

 Free energy of the ion-electron system (eV)
  ---------------------------------------------------
  alpha Z        PSCENC =      5724.37762586
  Ewald energy   TEWEN  =    -74286.70658625
  -Hartree energ DENC   =    -23594.08908558
  -exchange      EXHF   =         0.00000000
  -V(xc)+E(xc)   XCENC  =      3926.78191611
  PAW double counting   =     70978.03586923   -69313.21764155
  entropy T*S    EENTRO =         0.03114283
  eigenvalues    EBANDS =    -15986.59191767
  atomic energy  EATOM  =    102032.36766181
  Solvation  Ediel_sol  =         0.00000000
  ---------------------------------------------------
  free energy    TOTEN  =      -519.01101522 eV

  energy without entropy =     -519.04215805  energy(sigma->0) =     -519.02139616


--------------------------------------------------------------------------------------------------------




--------------------------------------- Iteration      1(  15)  ---------------------------------------


    POTLOK:  cpu time    0.3800: real time    0.3868
    SETDIJ:  cpu time    0.0233: real time    0.0233
     EDDAV:  cpu time  268.3251: real time  268.5060
       DOS:  cpu time    0.0073: real time    0.0074
    CHARGE:  cpu time   10.2464: real time   10.2514
    MIXING:  cpu time    0.0141: real time    0.0141
    --------------------------------------------
      LOOP:  cpu time  278.9962: real time  279.1890

 eigenvalue-minimisations  : 18608
 total energy-change (2. order) : 0.1025064E-02  (-0.4689967E-03)
 number of electron     774.0000121 magnetization 
 augmentation part      228.6387565 magnetization 

 Broyden mixing:
  rms(total) = 0.14167E-01    rms(broyden)= 0.14166E-01
  rms(prec ) = 0.18863E-01
  weight for this iteration     100.00

 eigenvalues of (default mixing * dielectric matrix)
  average eigenvalue GAMMA=   0.9492
  2.5194  2.0223  1.1228  1.1228  0.8431  0.8431  0.2163  0.2753  0.2753  0.2515

 Free energy of the ion-electron system (eV)
  ---------------------------------------------------
  alpha Z        PSCENC =      5724.37762586
  Ewald energy   TEWEN  =    -74286.70658625
  -Hartree energ DENC   =    -23592.57633583
  -exchange      EXHF   =         0.00000000
  -V(xc)+E(xc)   XCENC  =      3926.69696971
  PAW double counting   =     70976.54625919   -69311.13984368
  entropy T*S    EENTRO =         0.03116485
  eigenvalues    EBANDS =    -15988.60690581
  atomic energy  EATOM  =    102032.36766181
  Solvation  Ediel_sol  =         0.00000000
  ---------------------------------------------------
  free energy    TOTEN  =      -519.00999015 eV

  energy without entropy =     -519.04115500  energy(sigma->0) =     -519.02037844


--------------------------------------------------------------------------------------------------------




--------------------------------------- Iteration      1(  16)  ---------------------------------------


    POTLOK:  cpu time    0.3813: real time    0.3859
    SETDIJ:  cpu time    0.0232: real time    0.0232
     EDDAV:  cpu time  265.8042: real time  265.8756
       DOS:  cpu time    0.0052: real time    0.0052
    CHARGE:  cpu time   11.0905: real time   11.0918
    MIXING:  cpu time    0.0139: real time    0.0139
    --------------------------------------------
      LOOP:  cpu time  277.3184: real time  277.3956

 eigenvalue-minimisations  : 19016
 total energy-change (2. order) :-0.4442606E-03  (-0.3337598E-03)
 number of electron     774.0000121 magnetization 
 augmentation part      228.5948876 magnetization 

 Broyden mixing:
  rms(total) = 0.13875E-01    rms(broyden)= 0.13875E-01
  rms(prec ) = 0.23439E-01
  weight for this iteration     100.00

 eigenvalues of (default mixing * dielectric matrix)
  average eigenvalue GAMMA=   0.9295
  2.5067  2.5067  1.1087  1.1087  0.8488  0.8488  0.2162  0.2862  0.2862  0.2536
  0.2536

 Free energy of the ion-electron system (eV)
  ---------------------------------------------------
  alpha Z        PSCENC =      5724.37762586
  Ewald energy   TEWEN  =    -74286.70658625
  -Hartree energ DENC   =    -23595.59237865
  -exchange      EXHF   =         0.00000000
  -V(xc)+E(xc)   XCENC  =      3926.85190603
  PAW double counting   =     70989.40853906   -69320.58990721
  entropy T*S    EENTRO =         0.03114012
  eigenvalues    EBANDS =    -15989.15843518
  atomic energy  EATOM  =    102032.36766181
  Solvation  Ediel_sol  =         0.00000000
  ---------------------------------------------------
  free energy    TOTEN  =      -519.01043441 eV

  energy without entropy =     -519.04157454  energy(sigma->0) =     -519.02081445


--------------------------------------------------------------------------------------------------------




--------------------------------------- Iteration      1(  17)  ---------------------------------------


    POTLOK:  cpu time    0.3798: real time    0.3846
    SETDIJ:  cpu time    0.0239: real time    0.0239
     EDDAV:  cpu time  258.9418: real time  259.0337
       DOS:  cpu time    0.0048: real time    0.0048
    CHARGE:  cpu time   11.2798: real time   11.2812
    MIXING:  cpu time    0.0144: real time    0.0144
    --------------------------------------------
      LOOP:  cpu time  270.6443: real time  270.7425

 eigenvalue-minimisations  : 18624
 total energy-change (2. order) : 0.2003594E-03  (-0.2336717E-03)
 number of electron     774.0000121 magnetization 
 augmentation part      228.5740040 magnetization 

 Broyden mixing:
  rms(total) = 0.44990E-02    rms(broyden)= 0.44980E-02
  rms(prec ) = 0.62403E-02
  weight for this iteration     100.00

 eigenvalues of (default mixing * dielectric matrix)
  average eigenvalue GAMMA=   0.9168
  2.5647  2.5647  1.0566  1.0566  0.8778  0.8778  0.7317  0.2163  0.2789  0.2660
  0.2660  0.2442

 Free energy of the ion-electron system (eV)
  ---------------------------------------------------
  alpha Z        PSCENC =      5724.37762586
  Ewald energy   TEWEN  =    -74286.70658625
  -Hartree energ DENC   =    -23597.27205902
  -exchange      EXHF   =         0.00000000
  -V(xc)+E(xc)   XCENC  =      3926.93854876
  PAW double counting   =     70996.33961199   -69325.52361097
  entropy T*S    EENTRO =         0.03121644
  eigenvalues    EBANDS =    -15989.56264265
  atomic energy  EATOM  =    102032.36766181
  Solvation  Ediel_sol  =         0.00000000
  ---------------------------------------------------
  free energy    TOTEN  =      -519.01023405 eV

  energy without entropy =     -519.04145049  energy(sigma->0) =     -519.02063953


--------------------------------------------------------------------------------------------------------




--------------------------------------- Iteration      1(  18)  ---------------------------------------


    POTLOK:  cpu time    0.3792: real time    0.3831
    SETDIJ:  cpu time    0.0232: real time    0.0232
     EDDAV:  cpu time  271.9374: real time  272.0536
       DOS:  cpu time    0.0049: real time    0.0049
    CHARGE:  cpu time   11.1455: real time   11.1525
    MIXING:  cpu time    0.0146: real time    0.0146
    --------------------------------------------
      LOOP:  cpu time  283.5048: real time  283.6319

 eigenvalue-minimisations  : 19520
 total energy-change (2. order) :-0.2735814E-04  (-0.5312062E-04)
 number of electron     774.0000121 magnetization 
 augmentation part      228.5599204 magnetization 

 Broyden mixing:
  rms(total) = 0.62945E-02    rms(broyden)= 0.62945E-02
  rms(prec ) = 0.81579E-02
  weight for this iteration     100.00

 eigenvalues of (default mixing * dielectric matrix)
  average eigenvalue GAMMA=   0.8763
  2.5792  2.5792  1.0471  1.0471  0.9061  0.9061  0.7226  0.3338  0.2162  0.2783
  0.2783  0.2490  0.2490

 Free energy of the ion-electron system (eV)
  ---------------------------------------------------
  alpha Z        PSCENC =      5724.37762586
  Ewald energy   TEWEN  =    -74286.70658625
  -Hartree energ DENC   =    -23597.43184451
  -exchange      EXHF   =         0.00000000
  -V(xc)+E(xc)   XCENC  =      3926.94656134
  PAW double counting   =     70996.27055599   -69324.93371713
  entropy T*S    EENTRO =         0.03121826
  eigenvalues    EBANDS =    -15989.93173677
  atomic energy  EATOM  =    102032.36766181
  Solvation  Ediel_sol  =         0.00000000
  ---------------------------------------------------
  free energy    TOTEN  =      -519.01026141 eV

  energy without entropy =     -519.04147967  energy(sigma->0) =     -519.02066750


--------------------------------------------------------------------------------------------------------




--------------------------------------- Iteration      1(  19)  ---------------------------------------


    POTLOK:  cpu time    0.3798: real time    0.3847
    SETDIJ:  cpu time    0.0232: real time    0.0232
     EDDAV:  cpu time  266.8177: real time  266.9191
       DOS:  cpu time    0.0050: real time    0.0050
    CHARGE:  cpu time   11.2083: real time   11.2097
    MIXING:  cpu time    0.0151: real time    0.0151
    --------------------------------------------
      LOOP:  cpu time  278.4491: real time  278.5568

 eigenvalue-minimisations  : 19144
 total energy-change (2. order) : 0.6952978E-05  (-0.1149125E-04)
 number of electron     774.0000121 magnetization 
 augmentation part      228.5566907 magnetization 

 Broyden mixing:
  rms(total) = 0.56091E-02    rms(broyden)= 0.56091E-02
  rms(prec ) = 0.68030E-02
  weight for this iteration     100.00

 eigenvalues of (default mixing * dielectric matrix)
  average eigenvalue GAMMA=   0.8762
  2.5739  2.5739  1.0639  1.0639  1.0176  1.0176  0.7080  0.7080  0.2163  0.2854
  0.2854  0.2587  0.2587  0.2355

 Free energy of the ion-electron system (eV)
  ---------------------------------------------------
  alpha Z        PSCENC =      5724.37762586
  Ewald energy   TEWEN  =    -74286.70658625
  -Hartree energ DENC   =    -23597.62401167
  -exchange      EXHF   =         0.00000000
  -V(xc)+E(xc)   XCENC  =      3926.95632085
  PAW double counting   =     70996.32085132   -69324.73540133
  entropy T*S    EENTRO =         0.03121638
  eigenvalues    EBANDS =    -15989.99793142
  atomic energy  EATOM  =    102032.36766181
  Solvation  Ediel_sol  =         0.00000000
  ---------------------------------------------------
  free energy    TOTEN  =      -519.01025446 eV

  energy without entropy =     -519.04147084  energy(sigma->0) =     -519.02065992


--------------------------------------------------------------------------------------------------------




--------------------------------------- Iteration      1(  20)  ---------------------------------------


    POTLOK:  cpu time    0.3809: real time    0.3859
    SETDIJ:  cpu time    0.0232: real time    0.0232
     EDDAV:  cpu time  276.0275: real time  276.1195
       DOS:  cpu time    0.0044: real time    0.0044
    CHARGE:  cpu time   11.1568: real time   11.1601
    MIXING:  cpu time    0.0151: real time    0.0151
    --------------------------------------------
      LOOP:  cpu time  287.6079: real time  287.7083

 eigenvalue-minimisations  : 20000
 total energy-change (2. order) :-0.4308764E-05  (-0.2684827E-05)
 number of electron     774.0000121 magnetization 
 augmentation part      228.5531702 magnetization 

 Broyden mixing:
  rms(total) = 0.33533E-02    rms(broyden)= 0.33533E-02
  rms(prec ) = 0.43505E-02
  weight for this iteration     100.00

 eigenvalues of (default mixing * dielectric matrix)
  average eigenvalue GAMMA=   0.9544
  2.7535  2.4206  1.4873  1.4873  1.0889  1.0889  0.8455  0.8455  0.7639  0.2163
  0.2742  0.2742  0.2747  0.2524  0.2434

 Free energy of the ion-electron system (eV)
  ---------------------------------------------------
  alpha Z        PSCENC =      5724.37762586
  Ewald energy   TEWEN  =    -74286.70658625
  -Hartree energ DENC   =    -23598.22546677
  -exchange      EXHF   =         0.00000000
  -V(xc)+E(xc)   XCENC  =      3926.98730241
  PAW double counting   =     70996.91775817   -69324.90024887
  entropy T*S    EENTRO =         0.03120788
  eigenvalues    EBANDS =    -15989.85951300
  atomic energy  EATOM  =    102032.36766181
  Solvation  Ediel_sol  =         0.00000000
  ---------------------------------------------------
  free energy    TOTEN  =      -519.01025877 eV

  energy without entropy =     -519.04146665  energy(sigma->0) =     -519.02066140


--------------------------------------------------------------------------------------------------------




--------------------------------------- Iteration      1(  21)  ---------------------------------------


    POTLOK:  cpu time    0.3808: real time    0.3883
    SETDIJ:  cpu time    0.0234: real time    0.0234
     EDDAV:  cpu time  265.9078: real time  266.0333
       DOS:  cpu time    0.0051: real time    0.0051
    CHARGE:  cpu time   11.1091: real time   11.1231
    MIXING:  cpu time    0.0146: real time    0.0146
    --------------------------------------------
      LOOP:  cpu time  277.4408: real time  277.5878

 eigenvalue-minimisations  : 18840
 total energy-change (2. order) :-0.6778952E-05  (-0.2689221E-05)
 number of electron     774.0000121 magnetization 
 augmentation part      228.5524939 magnetization 

 Broyden mixing:
  rms(total) = 0.13626E-02    rms(broyden)= 0.13624E-02
  rms(prec ) = 0.24223E-02
  weight for this iteration     100.00

 eigenvalues of (default mixing * dielectric matrix)
  average eigenvalue GAMMA=   0.9282
  2.8502  2.2929  1.8462  1.1788  1.1788  1.0868  0.8906  0.8906  0.8243  0.2163
  0.2874  0.2735  0.2735  0.2674  0.2460  0.2486

 Free energy of the ion-electron system (eV)
  ---------------------------------------------------
  alpha Z        PSCENC =      5724.37762586
  Ewald energy   TEWEN  =    -74286.70658625
  -Hartree energ DENC   =    -23598.78940076
  -exchange      EXHF   =         0.00000000
  -V(xc)+E(xc)   XCENC  =      3927.01616839
  PAW double counting   =     70997.13570775   -69324.69035522
  entropy T*S    EENTRO =         0.03120406
  eigenvalues    EBANDS =    -15989.75229118
  atomic energy  EATOM  =    102032.36766181
  Solvation  Ediel_sol  =         0.00000000
  ---------------------------------------------------
  free energy    TOTEN  =      -519.01026555 eV

  energy without entropy =     -519.04146961  energy(sigma->0) =     -519.02066690


--------------------------------------------------------------------------------------------------------




--------------------------------------- Iteration      1(  22)  ---------------------------------------


    POTLOK:  cpu time    0.3825: real time    0.3869
    SETDIJ:  cpu time    0.0232: real time    0.0233
     EDDAV:  cpu time  234.8709: real time  234.9554
       DOS:  cpu time    0.0054: real time    0.0053
    CHARGE:  cpu time   11.0885: real time   11.0939
    MIXING:  cpu time    0.0144: real time    0.0146
    --------------------------------------------
      LOOP:  cpu time  246.3849: real time  246.4795

 eigenvalue-minimisations  : 16032
 total energy-change (2. order) :-0.2639790E-05  (-0.1429850E-05)
 number of electron     774.0000121 magnetization 
 augmentation part      228.5533122 magnetization 

 Broyden mixing:
  rms(total) = 0.77236E-03    rms(broyden)= 0.77228E-03
  rms(prec ) = 0.11157E-02
  weight for this iteration     100.00

 eigenvalues of (default mixing * dielectric matrix)
  average eigenvalue GAMMA=   0.9052
  2.8474  2.3451  1.7001  1.1758  1.1758  1.0277  0.9596  0.9596  0.7048  0.7048
  0.2163  0.2761  0.2761  0.2715  0.2533  0.2533  0.2415

 Free energy of the ion-electron system (eV)
  ---------------------------------------------------
  alpha Z        PSCENC =      5724.37762586
  Ewald energy   TEWEN  =    -74286.70658625
  -Hartree energ DENC   =    -23599.01978053
  -exchange      EXHF   =         0.00000000
  -V(xc)+E(xc)   XCENC  =      3927.02792330
  PAW double counting   =     70997.10379688   -69324.47951958
  entropy T*S    EENTRO =         0.03119822
  eigenvalues    EBANDS =    -15989.71258789
  atomic energy  EATOM  =    102032.36766181
  Solvation  Ediel_sol  =         0.00000000
  ---------------------------------------------------
  free energy    TOTEN  =      -519.01026819 eV

  energy without entropy =     -519.04146641  energy(sigma->0) =     -519.02066759


--------------------------------------------------------------------------------------------------------




--------------------------------------- Iteration      1(  23)  ---------------------------------------


    POTLOK:  cpu time    0.3832: real time    0.3880
    SETDIJ:  cpu time    0.0232: real time    0.0232
     EDDAV:  cpu time  164.8070: real time  164.8369
       DOS:  cpu time    0.0049: real time    0.0049
    --------------------------------------------
      LOOP:  cpu time  165.2183: real time  165.2529

 eigenvalue-minimisations  :  9976
 total energy-change (2. order) : 0.5831535E-06  (-0.2511013E-06)
 number of electron     774.0000121 magnetization 
 augmentation part      228.5533122 magnetization 

 Free energy of the ion-electron system (eV)
  ---------------------------------------------------
  alpha Z        PSCENC =      5724.37762586
  Ewald energy   TEWEN  =    -74286.70658625
  -Hartree energ DENC   =    -23598.99412430
  -exchange      EXHF   =         0.00000000
  -V(xc)+E(xc)   XCENC  =      3927.02662155
  PAW double counting   =     70997.03015645   -69324.42366328
  entropy T*S    EENTRO =         0.03119742
  eigenvalues    EBANDS =    -15989.71915686
  atomic energy  EATOM  =    102032.36766181
  Solvation  Ediel_sol  =         0.00000000
  ---------------------------------------------------
  free energy    TOTEN  =      -519.01026760 eV

  energy without entropy =     -519.04146503  energy(sigma->0) =     -519.02066674


--------------------------------------------------------------------------------------------------------




 average (electrostatic) potential at core
  the test charge radii are     0.7215  1.0397
  (the norm of the test charge is              1.0000)
       1 -72.2379       2 -51.2597       3 -51.2534       4 -51.2450       5 -51.2598
       6 -51.2597       7 -51.2598       8 -51.2623       9 -51.2534      10 -51.2598
      11 -51.2534      12 -51.2613      13 -51.2451      14 -51.2613      15 -51.2614
      16 -51.2597      17 -51.2452      18 -51.2533      19 -51.2598      20 -51.2451
      21 -51.2598      22 -51.2613      23 -51.2614      24 -51.2452      25 -51.2614
      26 -51.2533      27 -51.2598      28 -51.2533      29 -51.2623      30 -51.2597
      31 -51.2598      32 -51.2597      33 -51.2453      34 -51.2683      35 -51.2607
      36 -51.2690      37 -51.2682      38 -51.2683      39 -51.2682      40 -51.2670
      41 -51.2607      42 -51.2683      43 -51.2607      44 -51.3414      45 -51.2690
      46 -51.3414      47 -51.3414      48 -51.2683      49 -51.2689      50 -51.2608
      51 -51.2683      52 -51.2690      53 -51.2683      54 -51.3414      55 -51.3414
      56 -51.2690      57 -51.3414      58 -51.2608      59 -51.2683      60 -51.2608
      61 -51.2668      62 -51.2684      63 -51.2682      64 -51.2684      65 -51.2689
 
 
 
 E-fermi :   5.7634     XC(G=0): -11.5113     alpha+bet :-13.5512


 k-point     1 :       0.0000    0.0000    0.0000
  band No.  band energies     occupation 
      1     -51.0468      2.00000
      2     -50.9994      2.00000
      3     -50.9994      2.00000
      4     -50.9989      2.00000
      5     -50.9986      2.00000
      6     -50.9757      2.00000
      7     -50.9757      2.00000
      8     -50.9656      2.00000
      9     -50.9620      2.00000
     10     -50.9620      2.00000
     11     -50.9506      2.00000
     12     -50.9445      2.00000
     13     -50.9445      2.00000
     14     -50.9433      2.00000
     15     -50.9263      2.00000
     16     -50.9171      2.00000
     17     -50.9169      2.00000
     18     -50.9169      2.00000
     19     -50.9144      2.00000
     20     -50.9144      2.00000
     21     -50.9144      2.00000
     22     -50.9124      2.00000
     23     -50.9124      2.00000
     24     -50.9105      2.00000
     25     -50.9105      2.00000
     26     -50.9039      2.00000
     27     -50.9037      2.00000
     28     -50.9035      2.00000
     29     -50.9005      2.00000
     30     -50.9005      2.00000
     31     -50.8950      2.00000
     32     -50.8950      2.00000
     33     -50.8879      2.00000
     34     -50.8875      2.00000
     35     -50.8875      2.00000
     36     -50.8839      2.00000
     37     -50.8825      2.00000
     38     -50.8821      2.00000
     39     -50.8807      2.00000
     40     -50.8807      2.00000
     41     -50.8805      2.00000
     42     -50.8799      2.00000
     43     -50.8789      2.00000
     44     -50.8789      2.00000
     45     -50.8760      2.00000
     46     -50.8760      2.00000
     47     -50.8758      2.00000
     48     -50.8746      2.00000
     49     -50.8746      2.00000
     50     -50.8710      2.00000
     51     -50.8671      2.00000
     52     -50.8670      2.00000
     53     -50.8647      2.00000
     54     -50.8647      2.00000
     55     -50.8646      2.00000
     56     -50.8606      2.00000
     57     -50.8606      2.00000
     58     -50.8586      2.00000
     59     -50.8560      2.00000
     60     -50.8550      2.00000
     61     -50.8550      2.00000
     62     -50.8527      2.00000
     63     -50.8527      2.00000
     64     -50.8523      2.00000
     65     -27.7596      2.00000
     66     -27.6613      2.00000
     67     -27.6072      2.00000
     68     -27.6072      2.00000
     69     -27.5931      2.00000
     70     -27.5856      2.00000
     71     -27.5856      2.00000
     72     -27.5750      2.00000
     73     -27.5708      2.00000
     74     -27.5708      2.00000
     75     -27.5587      2.00000
     76     -27.5587      2.00000
     77     -27.5584      2.00000
     78     -27.5456      2.00000
[...]
 -0.000   0.000  -8.754  -0.000   0.000  -0.146   0.000  -0.000
  0.000  -0.000  -0.000  -8.752   0.000   0.000  -0.147  -0.000
 -0.000   0.000   0.000   0.000  -8.754  -0.000  -0.000  -0.146
  0.000  -0.000  -0.146   0.000  -0.000   0.264  -0.000   0.000
 -0.000   0.000   0.000  -0.147  -0.000  -0.000   0.265   0.000
  0.000  -0.000  -0.000  -0.000  -0.146   0.000   0.000   0.264
 total augmentation occupancy for first ion, spin component:           1
  1.858   0.148   0.000   0.000   0.000   0.000  -0.000   0.000
  0.148   0.025   0.000  -0.000   0.000   0.000  -0.000   0.000
  0.000   0.000   1.561  -0.000   0.000   0.150  -0.000  -0.000
  0.000  -0.000  -0.000   1.572   0.000  -0.000   0.149   0.000
  0.000   0.000   0.000   0.000   1.561  -0.000   0.000   0.150
  0.000   0.000   0.150  -0.000  -0.000   0.019  -0.000  -0.000
 -0.000  -0.000  -0.000   0.149   0.000  -0.000   0.019   0.000
  0.000   0.000  -0.000   0.000   0.150  -0.000   0.000   0.019


------------------------ aborting loop because EDIFF is reached ----------------------------------------


    CHARGE:  cpu time   11.0545: real time   11.0615
    FORLOC:  cpu time    0.0960: real time    0.0961
    FORNL :  cpu time  107.0566: real time  107.0766
    STRESS:  cpu time  114.0228: real time  114.0480
    FORCOR:  cpu time    0.4359: real time    0.4361
    FORHAR:  cpu time    0.1780: real time    0.1780
    MIXING:  cpu time    0.0145: real time    0.0145
    OFIELD:  cpu time    0.0001: real time    0.0001

  FORCE on cell =-STRESS in cart. coord.  units (eV):
  Direction    XX          YY          ZZ          XY          YZ          ZX
  --------------------------------------------------------------------------------------
  Alpha Z  5724.37763  5724.37763  5724.37763
  Ewald  -25041.21930-25041.22221-24204.67516    -0.00627    -0.00512     0.00568
  Hartree  7731.12545  7731.12240  8136.63905    -0.00421    -0.00243     0.00287
  E(xc)   -4085.69573 -4085.69576 -4085.62510    -0.00003    -0.00001     0.00001
  Local    7044.02301  7044.02896  5891.43472     0.01030     0.00736    -0.00825
  n-local -5403.67188 -5403.67097 -5488.38123     0.00119     0.00027    -0.00027
  augment  2311.67540  2311.67550  2295.17902     0.00005    -0.00002     0.00001
  Kinetic 11719.40747 11719.40699 11730.96579    -0.00090    -0.00013     0.00002
  Fock        0.00000     0.00000     0.00000     0.00000     0.00000     0.00000
  -------------------------------------------------------------------------------------
  Total       0.02205     0.02253    -0.08529     0.00014    -0.00008     0.00007
  in kB       0.03165     0.03235    -0.12244     0.00021    -0.00011     0.00010
  external pressure =       -0.02 kB  Pullay stress =        0.00 kB


 VOLUME and BASIS-vectors are now :
 -----------------------------------------------------------------------------
  energy-cutoff  :      500.00
  volume of cell :     1115.98
      direct lattice vectors                 reciprocal lattice vectors
    11.743347000 -0.000004623 -0.000003630     0.085154618  0.049164491  0.000000012
    -5.871712711 10.170011710  0.000004806     0.000000039  0.098328326 -0.000000027
    -0.000002751  0.000002557  9.344197851     0.000000033 -0.000000031  0.107018282

  length of vectors
    11.743347000 11.743344853  9.344197851     0.098328308  0.098328326  0.107018282


 FORCES acting on ions
    electron-ion (+dipol)            ewald-force                    non-local-force                 convergence-correction
 -----------------------------------------------------------------------------------------------
   0.470E-01 0.210E+00 -.232E-01   -.502E-01 -.225E+00 0.255E-01   0.192E-02 0.853E-02 -.611E-03   -.238E-03 0.270E-03 -.150E-02
   0.753E+01 0.882E+01 0.637E+01   -.754E+01 -.878E+01 -.634E+01   0.889E-02 -.343E-01 -.382E-01   0.132E-02 0.511E-03 0.129E-02
   0.866E+00 -.538E+00 -.328E+01   -.863E+00 0.537E+00 0.327E+01   -.312E-02 0.233E-02 0.106E-02   -.114E-02 0.671E-03 0.322E-02
   0.657E-02 0.163E+02 0.170E+02   -.659E-02 -.162E+02 -.168E+02   -.690E-05 -.143E+00 -.180E+00   0.390E-05 -.145E-02 -.273E-02
   0.388E+01 0.109E+02 -.631E+01   -.384E+01 -.109E+02 0.627E+01   -.340E-01 -.972E-02 0.383E-01   0.379E-03 0.146E-02 0.485E-02
   -.754E+01 0.882E+01 0.637E+01   0.755E+01 -.879E+01 -.634E+01   -.900E-02 -.342E-01 -.382E-01   -.130E-02 0.177E-03 0.121E-02
   -.388E+01 0.109E+02 -.630E+01   0.385E+01 -.109E+02 0.626E+01   0.338E-01 -.982E-02 0.383E-01   -.326E-03 0.131E-02 0.485E-02
   -.316E-02 -.134E-01 0.347E+01   0.341E-02 0.150E-01 -.356E+01   -.166E-03 -.104E-02 0.925E-01   -.174E-04 -.297E-03 0.282E-02
   -.869E+00 -.530E+00 -.328E+01   0.867E+00 0.529E+00 0.327E+01   0.301E-02 0.229E-02 0.843E-03   0.112E-02 0.433E-03 0.316E-02
   0.114E+02 0.210E+01 0.634E+01   -.114E+02 -.212E+01 -.631E+01   -.253E-01 0.244E-01 -.380E-01   0.116E-02 0.758E-03 0.118E-02
   -.890E-02 0.102E+01 -.327E+01   0.889E-02 -.102E+01 0.327E+01   0.137E-04 -.371E-02 0.182E-02   0.972E-04 -.119E-02 0.279E-02
   0.140E+02 0.802E+01 0.471E+02   -.139E+02 -.796E+01 -.469E+02   -.101E+00 -.584E-01 -.193E+00   -.120E-03 -.672E-04 -.102E-01
   0.141E+02 0.818E+01 -.169E+02   -.140E+02 -.810E+01 0.167E+02   -.124E+00 -.716E-01 0.180E+00   -.416E-03 -.237E-03 0.822E-02
   -.140E+02 0.800E+01 0.471E+02   0.139E+02 -.794E+01 -.469E+02   0.101E+00 -.582E-01 -.193E+00   -.123E-03 -.260E-03 -.102E-01
   -.130E-01 0.161E+02 -.471E+02   0.133E-01 -.160E+02 0.469E+02   -.112E-04 -.117E+00 0.193E+00   -.177E-03 0.572E-04 0.150E-01
   -.114E+02 0.210E+01 0.634E+01   0.114E+02 -.212E+01 -.630E+01   0.253E-01 0.245E-01 -.379E-01   -.871E-03 0.629E-03 0.115E-02
   -.141E+02 0.817E+01 -.169E+02   0.140E+02 -.810E+01 0.167E+02   0.124E+00 -.717E-01 0.180E+00   0.513E-03 -.399E-03 0.834E-02
   -.699E-02 -.102E+01 0.333E+01   0.664E-02 0.101E+01 -.334E+01   0.162E-03 0.375E-02 -.647E-03   0.269E-03 0.187E-02 0.309E-02
   -.114E+02 -.213E+01 -.631E+01   0.114E+02 0.215E+01 0.627E+01   0.245E-01 -.253E-01 0.378E-01   -.849E-03 -.608E-03 0.476E-02
   0.141E+02 -.810E+01 0.169E+02   -.140E+02 0.802E+01 -.167E+02   -.124E+00 0.713E-01 -.181E+00   -.103E-02 0.951E-03 -.258E-02
   0.114E+02 -.212E+01 -.632E+01   -.114E+02 0.215E+01 0.627E+01   -.248E-01 -.252E-01 0.380E-01   0.122E-02 -.453E-03 0.461E-02
   -.170E-01 -.161E+02 0.472E+02   0.173E-01 0.160E+02 -.470E+02   0.149E-03 0.116E+00 -.193E+00   -.316E-03 0.396E-03 -.991E-02
   0.139E+02 -.811E+01 -.471E+02   -.138E+02 0.805E+01 0.469E+02   -.101E+00 0.584E-01 0.192E+00   0.147E-03 -.552E-04 0.149E-01
   -.141E+02 -.809E+01 0.169E+02   0.139E+02 0.802E+01 -.167E+02   0.124E+00 0.714E-01 -.181E+00   0.107E-02 0.906E-03 -.273E-02
   -.139E+02 -.810E+01 -.472E+02   0.138E+02 0.804E+01 0.470E+02   0.100E+00 0.583E-01 0.192E+00   -.540E-03 -.146E-03 0.150E-01
   -.901E+00 0.482E+00 0.333E+01   0.898E+00 -.480E+00 -.333E+01   0.357E-02 -.151E-02 -.140E-02   0.159E-02 -.664E-03 0.334E-02
   -.752E+01 -.881E+01 -.628E+01   0.753E+01 0.877E+01 0.624E+01   -.934E-02 0.340E-01 0.375E-01   -.104E-02 -.588E-03 0.506E-02
   0.898E+00 0.488E+00 0.332E+01   -.896E+00 -.486E+00 -.333E+01   -.339E-02 -.160E-02 -.165E-02   -.128E-02 -.834E-03 0.335E-02
   -.255E-02 -.138E-01 -.341E+01   0.275E-02 0.150E-01 0.350E+01   -.333E-03 -.948E-03 -.924E-01   0.221E-03 -.588E-04 0.344E-02
   0.386E+01 -.109E+02 0.635E+01   -.382E+01 0.109E+02 -.632E+01   -.341E-01 0.858E-02 -.376E-01   -.196E-03 -.142E-02 0.138E-02
   0.751E+01 -.881E+01 -.628E+01   -.752E+01 0.878E+01 0.624E+01   0.894E-02 0.341E-01 0.376E-01   0.104E-02 -.844E-03 0.493E-02
   -.386E+01 -.109E+02 0.634E+01   0.383E+01 0.109E+02 -.631E+01   0.343E-01 0.863E-02 -.375E-01   -.124E-03 -.126E-02 0.134E-02
   0.689E-02 -.162E+02 -.168E+02   -.655E-02 0.161E+02 0.167E+02   -.140E-03 0.144E+00 0.181E+00   -.216E-03 0.581E-03 0.844E-02
   0.119E+02 0.171E+02 0.592E+01   -.118E+02 -.169E+02 -.593E+01   -.234E-01 -.145E+00 0.125E-01   -.321E-02 -.403E-02 -.177E-02
   0.135E+01 -.748E+00 -.476E+01   -.135E+01 0.746E+00 0.474E+01   0.179E-02 -.361E-03 0.248E-01   -.107E-02 0.498E-03 -.306E-02
   -.703E-02 0.441E+02 0.446E+01   0.711E-02 -.441E+02 -.458E+01   0.833E-04 0.464E-01 0.127E+00   -.129E-03 -.117E-01 0.205E-02
   0.883E+01 0.188E+02 -.598E+01   -.871E+01 -.187E+02 0.599E+01   -.114E+00 -.928E-01 -.125E-01   -.181E-02 -.576E-02 -.435E-02
   -.119E+02 0.170E+02 0.592E+01   0.118E+02 -.169E+02 -.593E+01   0.234E-01 -.145E+00 0.125E-01   0.336E-02 -.443E-02 -.167E-02
   -.883E+01 0.188E+02 -.598E+01   0.871E+01 -.187E+02 0.600E+01   0.114E+00 -.929E-01 -.125E-01   0.178E-02 -.599E-02 -.449E-02
   0.234E-02 0.109E-01 0.550E+01   -.222E-02 -.106E-01 -.549E+01   -.933E-05 -.373E-03 -.408E-02   -.698E-04 0.216E-03 -.279E-02
   -.135E+01 -.755E+00 -.476E+01   0.135E+01 0.753E+00 0.474E+01   -.171E-02 -.389E-03 0.250E-01   0.113E-02 0.320E-03 -.296E-02
   0.207E+02 0.175E+01 0.594E+01   -.206E+02 -.180E+01 -.595E+01   -.137E+00 0.520E-01 0.123E-01   -.547E-02 -.659E-03 -.168E-02
   0.577E-02 0.154E+01 -.475E+01   -.597E-02 -.154E+01 0.473E+01   0.856E-04 0.249E-02 0.241E-01   0.604E-04 -.125E-02 -.259E-02
   0.148E+03 0.857E+02 -.864E+02   -.150E+03 -.869E+02 0.883E+02   0.198E+01 0.114E+01 -.191E+01   -.101E-01 -.567E-02 0.106E-01
   0.382E+02 0.220E+02 -.450E+01   -.382E+02 -.220E+02 0.464E+01   0.399E-01 0.231E-01 -.127E+00   -.105E-01 -.600E-02 -.745E-02
   -.148E+03 0.858E+02 -.864E+02   0.150E+03 -.869E+02 0.883E+02   -.198E+01 0.114E+01 -.191E+01   0.973E-02 -.591E-02 0.106E-01
   0.263E-01 0.171E+03 0.863E+02   -.265E-01 -.174E+03 -.882E+02   0.136E-03 0.228E+01 0.191E+01   -.291E-03 -.123E-01 -.153E-01
   -.207E+02 0.174E+01 0.594E+01   0.206E+02 -.180E+01 -.595E+01   0.137E+00 0.520E-01 0.122E-01   0.585E-02 -.854E-03 -.162E-02
   -.382E+02 0.220E+02 -.451E+01   0.382E+02 -.220E+02 0.464E+01   -.397E-01 0.229E-01 -.127E+00   0.107E-01 -.624E-02 -.759E-02
   0.653E-02 -.155E+01 0.471E+01   -.718E-02 0.155E+01 -.468E+01   0.191E-03 -.154E-02 -.251E-01   0.389E-03 0.138E-02 -.331E-02
   -.207E+02 -.174E+01 -.597E+01   0.205E+02 0.179E+01 0.599E+01   0.136E+00 -.523E-01 -.121E-01   0.624E-02 0.109E-02 -.425E-02
   0.382E+02 -.221E+02 0.448E+01   -.382E+02 0.221E+02 -.461E+01   0.390E-01 -.226E-01 0.128E+00   -.989E-02 0.581E-02 0.196E-02
   0.207E+02 -.175E+01 -.597E+01   -.205E+02 0.180E+01 0.599E+01   -.137E+00 -.522E-01 -.123E-01   -.575E-02 0.129E-02 -.410E-02
   0.275E-01 -.172E+03 -.866E+02   -.276E-01 0.174E+03 0.885E+02   0.338E-03 -.228E+01 -.191E+01   -.563E-03 0.116E-01 0.104E-01
   0.149E+03 -.857E+02 0.865E+02   -.151E+03 0.868E+02 -.884E+02   0.198E+01 -.114E+01 0.191E+01   -.105E-01 0.637E-02 -.152E-01
   -.382E+02 -.221E+02 0.448E+01   0.383E+02 0.221E+02 -.461E+01   -.385E-01 -.223E-01 0.128E+00   0.101E-01 0.582E-02 0.206E-02
   -.149E+03 -.857E+02 0.865E+02   0.151E+03 0.868E+02 -.884E+02   -.198E+01 -.114E+01 0.191E+01   0.101E-01 0.634E-02 -.153E-01
   -.132E+01 0.794E+00 0.470E+01   0.132E+01 -.793E+00 -.468E+01   -.151E-02 0.149E-02 -.244E-01   0.168E-02 -.468E-03 -.356E-02
   -.118E+02 -.170E+02 -.600E+01   0.118E+02 0.169E+02 0.601E+01   0.232E-01 0.145E+00 -.119E-01   0.390E-02 0.494E-02 -.454E-02
   0.132E+01 0.787E+00 0.470E+01   -.132E+01 -.787E+00 -.468E+01   0.186E-02 0.149E-02 -.242E-01   -.135E-02 -.846E-03 -.351E-02
   0.182E-02 0.105E-01 -.555E+01   -.186E-02 -.102E-01 0.555E+01   -.164E-03 -.311E-03 0.412E-02   0.257E-03 0.237E-03 -.350E-02
   0.883E+01 -.188E+02 0.593E+01   -.871E+01 0.187E+02 -.594E+01   -.114E+00 0.922E-01 0.121E-01   -.208E-02 0.475E-02 -.180E-02
   0.118E+02 -.170E+02 -.600E+01   -.118E+02 0.169E+02 0.601E+01   -.234E-01 0.145E+00 -.120E-01   -.393E-02 0.455E-02 -.446E-02
   -.883E+01 -.188E+02 0.594E+01   0.872E+01 0.187E+02 -.595E+01   0.114E+00 0.923E-01 0.119E-01   0.177E-02 0.501E-02 -.177E-02
   -.887E-02 -.442E+02 -.453E+01   0.926E-02 0.442E+02 0.467E+01   -.633E-04 -.442E-01 -.128E+00   -.264E-03 0.120E-01 -.768E-02
 -----------------------------------------------------------------------------------------------
   -.293E-02 -.142E-01 0.140E-02   -.303E-13 0.604E-12 0.126E-11   0.304E-02 0.136E-01 -.810E-03   -.193E-03 0.258E-03 -.829E-03
 
 
 POSITION                                       TOTAL-FORCE (eV/Angst)
 -----------------------------------------------------------------------------------
      4.40395      4.23830      5.84007        -0.001498     -0.006802      0.000242
      1.46728      0.84215      2.33389        -0.001000     -0.002619     -0.002171
     11.73841      0.00308      0.00102        -0.001864      0.001507      0.001324
      4.40383      0.83738      2.33714        -0.000022      0.002429      0.000247
     -2.94016     10.16677      0.00219        -0.001872     -0.001993      0.001743
      7.34033      0.84210      2.33389         0.001128     -0.002654     -0.002144
      0.00434     10.16673      0.00218         0.001989     -0.001887      0.001719
     10.27546      0.84745      2.34816         0.000066      0.000280      0.004588
      8.81254      0.00306      0.00100         0.001992      0.001443      0.001436
     -0.00512      3.39216      2.33390        -0.002564      0.000894     -0.002188
     10.27548      2.53672      0.00111         0.000102     -0.002150      0.000884
      2.92411      3.38345      2.34479         0.000004      0.000463      0.002177
      1.45902      2.53751      9.34315         0.002266      0.001232     -0.000891
      5.88357      3.38344      2.34481        -0.000021      0.000588      0.001885
      4.40383      2.52912      9.33545         0.000110      0.000142     -0.002762
      8.81279      3.39218      2.33391         0.002602      0.000904     -0.002132
      7.34866      2.53748      9.34320        -0.002510      0.001391     -0.001290
     -1.46786      5.93837      2.33510         0.000078      0.002522     -0.002023
     -2.93057      5.08288      0.00216         0.003078     -0.000253      0.001572
      1.45885      5.93794      2.33695         0.003007     -0.001778      0.001633
     -0.00514      5.08290      0.00217        -0.003019     -0.000240      0.001607
      4.40383      5.94634      2.34491         0.000104     -0.000447      0.000883
      2.92411      5.09208      9.33537         0.000562      0.000278     -0.001751
      7.34883      5.93798      2.33689        -0.003316     -0.001935      0.002015
      5.88350      5.09206      9.33533        -0.000534      0.000156     -0.001467
     -2.93070      8.47226      2.33502         0.002142     -0.000804     -0.001621
     -4.40295      7.63332      0.00214         0.000841      0.002811      0.001577
     -0.00508      8.47223      2.33499        -0.002064     -0.000848     -0.001475
     -1.46794      7.62747      9.33213         0.000089      0.000288     -0.005091
      2.93127      8.47858      2.33393        -0.001813      0.002413     -0.002031
      1.46713      7.63327      0.00214        -0.000664      0.002790      0.001611
      5.87630      8.47861      2.33394         0.001866      0.002304     -0.001999
      4.40379      7.63834      9.34340        -0.000008     -0.003979     -0.002640
      1.46422      0.84968      7.01528         0.001366      0.001271      0.000538
     -5.86956     10.16924      4.67183         0.002730     -0.001911      0.001907
      4.40384      0.82886      7.03304         0.000037      0.000274      0.001932
     -2.93220     10.16790      4.66492         0.000425      0.001804     -0.000151
      7.34345      0.84966      7.01529        -0.001505      0.001340      0.000473
     -0.00358     10.16785      4.66492        -0.000377      0.001859     -0.000156
     10.27551      0.84771      7.01128         0.000042      0.000153     -0.000528
      2.93381     10.16920      4.67184        -0.002700     -0.001848      0.001824
     -0.00024      3.38585      7.01526         0.001805      0.000801      0.000546
     -1.46781      2.54500      4.67175        -0.000052      0.003320      0.002290
      2.93016      3.38719      7.04884         0.001181     -0.000459     -0.004053
      1.45159      2.53325      4.64712         0.000268      0.000365     -0.001361
      5.87757      3.38724      7.04877        -0.000361     -0.001301     -0.002765
      4.40389      2.53628      4.63127        -0.000291      0.001295      0.005298
      8.80796      3.38583      7.01525        -0.001942      0.000942      0.000459
      7.35613      2.53319      4.64708        -0.000222      0.000406     -0.001138
     -1.46781      5.93042      7.00834        -0.000077     -0.003270     -0.001275
     -2.93548      5.08951      4.66489        -0.002322     -0.000837      0.000204
      1.45138      5.94229      7.03316         0.000348      0.000089      0.001132
     -0.00020      5.08948      4.66489         0.002231     -0.000705      0.000126
      4.40390      5.93939      7.04860        -0.000321      0.004136      0.001224
      2.93037      5.08879      4.63148        -0.002860      0.000148      0.001137
      7.35633      5.94233      7.03319        -0.000330      0.000057      0.000901
      5.87732      5.08875      4.63152         0.003660      0.000946     -0.000037
     -2.93767      8.47652      7.00841        -0.003009      0.001430     -0.001616
     -4.39969      7.62591      4.66493        -0.002108     -0.001477      0.000205
      0.00196      8.47648      7.00843         0.002961      0.001482     -0.001724
     -1.46788      7.62773      4.66891         0.000058      0.000178      0.000966
      2.93946      8.47770      7.01529         0.000290     -0.002546      0.000207
      1.46394      7.62590      4.66493         0.001998     -0.001433      0.000130
      5.86815      8.47775      7.01527        -0.000246     -0.002580      0.000188
      4.40379      7.64705      4.64696         0.000065     -0.000374     -0.000356
 -----------------------------------------------------------------------------------
    total drift:                               -0.000083     -0.000316     -0.000238


--------------------------------------------------------------------------------------------------------



  FREE ENERGIE OF THE ION-ELECTRON SYSTEM (eV)
  ---------------------------------------------------
  free  energy   TOTEN  =      -519.01026760 eV

  energy  without entropy=     -519.04146503  energy(sigma->0) =     -519.02066674
 


--------------------------------------------------------------------------------------------------------


    POTLOK:  cpu time    0.4043: real time    0.4043


--------------------------------------------------------------------------------------------------------




--------------------------------------------------------------------------------------------------------


  
 reached required accuracy - stopping structural energy minimisation
     LOOP+:  cpu time 6444.9099: real time 6447.5300
    4ORBIT:  cpu time    0.0000: real time    0.0000

 total amount of memory used by VASP MPI-rank0   295669. kBytes
=======================================================================

   base      :      30000. kBytes
   nonl-proj :      35990. kBytes
   fftplans  :      14406. kBytes
   grid      :      22936. kBytes
   one-center:        264. kBytes
   wavefun   :     192073. kBytes
 
  
  
 General timing and accounting informations for this job:
 ========================================================
  
                  Total CPU time used (sec):     6471.687
                            User time (sec):     6378.573
                          System time (sec):       93.113
                         Elapsed time (sec):     6478.344
  
                   Maximum memory used (kb):      332132.
                   Average memory used (kb):           0.
  
                          Minor page faults:      3611096
                          Major page faults:            7
                 Voluntary context switches:         1332
